 Entering Gaussian System, Link 0=g09
 Input=C2H4.com
 Output=C2H4.log
 Initial command:
 /home/emil/gauss09/g09/l1.exe /home/emil/scratch/g09/Gau-9845.inp -scrdir=/home/emil/scratch/g09/
 Entering Link 1 = /home/emil/gauss09/g09/l1.exe PID=      9847.
  
 Copyright (c) 1988,1990,1992,1993,1995,1998,2003,2009,2010,
            Gaussian, Inc.  All Rights Reserved.
  
 This is part of the Gaussian(R) 09 program.  It is based on
 the Gaussian(R) 03 system (copyright 2003, Gaussian, Inc.),
 the Gaussian(R) 98 system (copyright 1998, Gaussian, Inc.),
 the Gaussian(R) 94 system (copyright 1995, Gaussian, Inc.),
 the Gaussian 92(TM) system (copyright 1992, Gaussian, Inc.),
 the Gaussian 90(TM) system (copyright 1990, Gaussian, Inc.),
 the Gaussian 88(TM) system (copyright 1988, Gaussian, Inc.),
 the Gaussian 86(TM) system (copyright 1986, Carnegie Mellon
 University), and the Gaussian 82(TM) system (copyright 1983,
 Carnegie Mellon University). Gaussian is a federally registered
 trademark of Gaussian, Inc.
  
 This software contains proprietary and confidential information,
 including trade secrets, belonging to Gaussian, Inc.
  
 This software is provided under written license and may be
 used, copied, transmitted, or stored only in accord with that
 written license.
  
 The following legend is applicable only to US Government
 contracts under FAR:
  
                    RESTRICTED RIGHTS LEGEND
  
 Use, reproduction and disclosure by the US Government is
 subject to restrictions as set forth in subparagraphs (a)
 and (c) of the Commercial Computer Software - Restricted
 Rights clause in FAR 52.227-19.
  
 Gaussian, Inc.
 340 Quinnipiac St., Bldg. 40, Wallingford CT 06492
  
  
 ---------------------------------------------------------------
 Warning -- This program may not be used in any manner that
 competes with the business of Gaussian, Inc. or will provide
 assistance to any competitor of Gaussian, Inc.  The licensee
 of this program is prohibited from giving any competitor of
 Gaussian, Inc. access to this program.  By using this program,
 the user acknowledges that Gaussian, Inc. is engaged in the
 business of creating and licensing software in the field of
 computational chemistry and represents and warrants to the
 licensee that it is not a competitor of Gaussian, Inc. and that
 it will not use this program in any manner prohibited above.
 ---------------------------------------------------------------
  

 Cite this work as:
 Gaussian 09, Revision B.01,
 M. J. Frisch, G. W. Trucks, H. B. Schlegel, G. E. Scuseria, 
 M. A. Robb, J. R. Cheeseman, G. Scalmani, V. Barone, B. Mennucci, 
 G. A. Petersson, H. Nakatsuji, M. Caricato, X. Li, H. P. Hratchian, 
 A. F. Izmaylov, J. Bloino, G. Zheng, J. L. Sonnenberg, M. Hada, 
 M. Ehara, K. Toyota, R. Fukuda, J. Hasegawa, M. Ishida, T. Nakajima, 
 Y. Honda, O. Kitao, H. Nakai, T. Vreven, J. A. Montgomery, Jr., 
 J. E. Peralta, F. Ogliaro, M. Bearpark, J. J. Heyd, E. Brothers, 
 K. N. Kudin, V. N. Staroverov, T. Keith, R. Kobayashi, J. Normand, 
 K. Raghavachari, A. Rendell, J. C. Burant, S. S. Iyengar, J. Tomasi, 
 M. Cossi, N. Rega, J. M. Millam, M. Klene, J. E. Knox, J. B. Cross, 
 V. Bakken, C. Adamo, J. Jaramillo, R. Gomperts, R. E. Stratmann, 
 O. Yazyev, A. J. Austin, R. Cammi, C. Pomelli, J. W. Ochterski, 
 R. L. Martin, K. Morokuma, V. G. Zakrzewski, G. A. Voth, 
 P. Salvador, J. J. Dannenberg, S. Dapprich, A. D. Daniels, 
 O. Farkas, J. B. Foresman, J. V. Ortiz, J. Cioslowski, 
 and D. J. Fox, Gaussian, Inc., Wallingford CT, 2010.
 
 ******************************************
 Gaussian 09:  EM64L-G09RevB.01 12-Aug-2010
                26-May-2021 
 ******************************************
 -----------
 #P HF/6-31G
 -----------
 1/38=1/1;
 2/12=2,17=6,18=5,40=1/2;
 3/5=1,6=6,11=9,16=1,25=1,30=1/1,2,3;
 4//1;
 5/5=2,38=5/2;
 6/7=2,8=2,9=2,10=2,28=1/1;
 99/5=1,9=1/99;
 Leave Link    1 at Wed May 26 13:52:27 2021, MaxMem=          0 cpu:       0.0
 (Enter /home/emil/gauss09/g09/l101.exe)
 ----
 C2H4
 ----
 Symbolic Z-matrix:
 Charge =  0 Multiplicity = 1
 C
 C                    1    RCC
 H                    1    RCH      2    HCC
 H                    1    RCH      2    HCC      3     180.     0
 H                    2    RCH      1    HCC      3     0.       0
 H                    2    RCH      1    HCC      3     180.     0
       Variables:
  RCC                   1.33119                  
  RCH                   1.08148                  
  HCC                 121.56244                  
 
 NAtoms=      6 NQM=      6 NQMF=      0 NMic=      0 NMicF=      0 NTot=      6.
                    Isotopes and Nuclear Properties:
 (Nuclear quadrupole moments (NQMom) in fm**2, nuclear magnetic moments (NMagM)
  in nuclear magnetons)

  Atom         1           2           3           4           5           6
 IAtWgt=          12          12           1           1           1           1
 AtmWgt=  12.0000000  12.0000000   1.0078250   1.0078250   1.0078250   1.0078250
 NucSpn=           0           0           1           1           1           1
 AtZEff=   0.0000000   0.0000000   0.0000000   0.0000000   0.0000000   0.0000000
 NQMom=    0.0000000   0.0000000   0.0000000   0.0000000   0.0000000   0.0000000
 NMagM=    0.0000000   0.0000000   2.7928460   2.7928460   2.7928460   2.7928460
 Leave Link  101 at Wed May 26 13:52:27 2021, MaxMem=   33554432 cpu:       0.1
 (Enter /home/emil/gauss09/g09/l202.exe)
                          Input orientation:                          
 ---------------------------------------------------------------------
 Center     Atomic      Atomic             Coordinates (Angstroms)
 Number     Number       Type             X           Y           Z
 ---------------------------------------------------------------------
      1          6           0        0.000000    0.000000    0.000000
      2          6           0        0.000000    0.000000    1.331187
      3          1           0        0.921495    0.000000   -0.566075
      4          1           0       -0.921495    0.000000   -0.566075
      5          1           0        0.921495    0.000000    1.897262
      6          1           0       -0.921495    0.000000    1.897262
 ---------------------------------------------------------------------
                    Distance matrix (angstroms):
                    1          2          3          4          5
     1  C    0.000000
     2  C    1.331187   0.000000
     3  H    1.081477   2.109207   0.000000
     4  H    1.081477   2.109207   1.842989   0.000000
     5  H    2.109207   1.081477   2.463337   3.076465   0.000000
     6  H    2.109207   1.081477   3.076465   2.463337   1.842989
                    6
     6  H    0.000000
 Stoichiometry    C2H4
 Framework group  D2H[C2"(C.C),SG(H4)]
 Deg. of freedom     3
 Full point group                 D2H     NOp   8
 Largest Abelian subgroup         D2H     NOp   8
 Largest concise Abelian subgroup D2      NOp   4
                         Standard orientation:                         
 ---------------------------------------------------------------------
 Center     Atomic      Atomic             Coordinates (Angstroms)
 Number     Number       Type             X           Y           Z
 ---------------------------------------------------------------------
      1          6           0        0.000000    0.000000    0.665593
      2          6           0        0.000000    0.000000   -0.665593
      3          1           0        0.000000    0.921495    1.231668
      4          1           0        0.000000   -0.921495    1.231668
      5          1           0        0.000000    0.921495   -1.231668
      6          1           0        0.000000   -0.921495   -1.231668
 ---------------------------------------------------------------------
 Rotational constants (GHZ):    147.6339960     30.1757328     25.0546697
 Leave Link  202 at Wed May 26 13:52:27 2021, MaxMem=   33554432 cpu:       0.0
 (Enter /home/emil/gauss09/g09/l301.exe)
 Standard basis: 6-31G (6D, 7F)
 Ernie: Thresh=  0.10000D-02 Tol=  0.10000D-05 Strict=F.
 There are     7 symmetry adapted basis functions of AG  symmetry.
 There are     0 symmetry adapted basis functions of B1G symmetry.
 There are     2 symmetry adapted basis functions of B2G symmetry.
 There are     4 symmetry adapted basis functions of B3G symmetry.
 There are     0 symmetry adapted basis functions of AU  symmetry.
 There are     7 symmetry adapted basis functions of B1U symmetry.
 There are     4 symmetry adapted basis functions of B2U symmetry.
 There are     2 symmetry adapted basis functions of B3U symmetry.
 Integral buffers will be    131072 words long.
 Raffenetti 1 integral format.
 Two-electron integral symmetry is turned on.
    26 basis functions,    60 primitive gaussians,    26 cartesian basis functions
     8 alpha electrons        8 beta electrons
       nuclear repulsion energy        33.4235103017 Hartrees.
 IExCor=    0 DFT=F Ex=HF Corr=None ExCW=0 ScaHFX=  1.000000
 ScaDFX=  1.000000  1.000000  1.000000  1.000000 ScalE2=  1.000000  1.000000
 IRadAn=      0 IRanWt=     -1 IRanGd=            0 ICorTp=0
 NAtoms=    6 NActive=    6 NUniq=    2 SFac= 4.00D+00 NAtFMM=   50 NAOKFM=F Big=F
 Leave Link  301 at Wed May 26 13:52:27 2021, MaxMem=   33554432 cpu:       0.0
 (Enter /home/emil/gauss09/g09/l302.exe)
 NPDir=0 NMtPBC=     1 NCelOv=     1 NCel=       1 NClECP=     1 NCelD=      1
         NCelK=      1 NCelE2=     1 NClLst=     1 CellRange=     0.0.
 One-electron integrals computed using PRISM.
 One-electron integral symmetry used in STVInt
 NBasis=    26 RedAO= T  NBF=     7     0     2     4     0     7     4     2
 NBsUse=    26 1.00D-06 NBFU=     7     0     2     4     0     7     4     2
 Leave Link  302 at Wed May 26 13:52:27 2021, MaxMem=   33554432 cpu:       0.1
 (Enter /home/emil/gauss09/g09/l303.exe)
 DipDrv:  MaxL=1.
 Leave Link  303 at Wed May 26 13:52:27 2021, MaxMem=   33554432 cpu:       0.0
 (Enter /home/emil/gauss09/g09/l401.exe)
 Harris functional with IExCor=  205 diagonalized for initial guess.
 ExpMin= 1.61D-01 ExpMax= 3.05D+03 ExpMxC= 4.57D+02 IAcc=1 IRadAn=         1 AccDes= 0.00D+00
 HarFok:  IExCor=  205 AccDes= 0.00D+00 IRadAn=         1 IDoV= 1
 ScaDFX=  1.000000  1.000000  1.000000  1.000000
 FoFCou: FMM=F IPFlag=           0 FMFlag=      100000 FMFlg1=           0
         NFxFlg=           0 DoJE=T BraDBF=F KetDBF=T FulRan=T
         Omega=  0.000000  0.000000  1.000000  0.000000  0.000000 ICntrl=     500 IOpCl=  0
         NMat0=    1 NMatS0=    1 NMatT0=    0 NMatD0=    1 NMtDS0=    0 NMtDT0=    0
         I1Cent=           4 NGrid=           0.
 Petite list used in FoFCou.
 Harris En= -78.1918789888170    
 Initial guess orbital symmetries:
       Occupied  (AG) (B1U) (AG) (B1U) (B2U) (AG) (B3G) (B3U)
       Virtual   (B2G) (AG) (B2U) (B1U) (B3G) (B1U) (AG) (B3U)
                 (B2U) (B2G) (B1U) (AG) (B3G) (B2U) (B1U) (AG)
                 (B1U) (B3G)
 The electronic state of the initial guess is 1-AG.
 Leave Link  401 at Wed May 26 13:52:27 2021, MaxMem=   33554432 cpu:       0.1
 (Enter /home/emil/gauss09/g09/l502.exe)
 Closed shell SCF:
 Requested convergence on RMS density matrix=1.00D-08 within 128 cycles.
 Requested convergence on MAX density matrix=1.00D-06.
 Requested convergence on             energy=1.00D-06.
 No special actions if energy rises.
 Using DIIS extrapolation, IDIIS=  1040.
 Integral symmetry usage will be decided dynamically.
 Keep R1 ints in memory in canonical form, NReq=882504.
 IEnd=       20714 IEndB=       20714 NGot=    33554432 MDV=    33489257
 LenX=    33489257 LenY=    33488140
 Symmetry not used in FoFDir.
 MinBra= 0 MaxBra= 1 Meth= 1.
 IRaf=       0 NMat=   1 IRICut=       1 DoRegI=T DoRafI=F ISym2E= 0 JSym2E=0.

 Cycle   1  Pass 1  IDiag  1:
 E= -77.8869181542016    
 DIIS: error= 7.39D-02 at cycle   1 NSaved=   1.
 NSaved= 1 IEnMin= 1 EnMin= -77.8869181542016     IErMin= 1 ErrMin= 7.39D-02
 ErrMax= 7.39D-02 EMaxC= 1.00D-01 BMatC= 1.10D-01 BMatP= 1.10D-01
 IDIUse=3 WtCom= 2.61D-01 WtEn= 7.39D-01
 Coeff-Com:  0.100D+01
 Coeff-En:   0.100D+01
 Coeff:      0.100D+01
 Gap=     0.550 Goal=   None    Shift=    0.000
 GapD=    0.550 DampG=2.000 DampE=0.500 DampFc=1.0000 IDamp=-1.
 RMSDP=1.40D-02 MaxDP=1.05D-01              OVMax= 1.18D-01

 Cycle   2  Pass 1  IDiag  1:
 E= -77.9908297998040     Delta-E=       -0.103911645602 Rises=F Damp=F
 DIIS: error= 2.27D-02 at cycle   2 NSaved=   2.
 NSaved= 2 IEnMin= 2 EnMin= -77.9908297998040     IErMin= 2 ErrMin= 2.27D-02
 ErrMax= 2.27D-02 EMaxC= 1.00D-01 BMatC= 1.29D-02 BMatP= 1.10D-01
 IDIUse=3 WtCom= 7.73D-01 WtEn= 2.27D-01
 Coeff-Com:  0.229D+00 0.771D+00
 Coeff-En:   0.000D+00 0.100D+01
 Coeff:      0.177D+00 0.823D+00
 Gap=     0.556 Goal=   None    Shift=    0.000
 RMSDP=4.14D-03 MaxDP=2.51D-02 DE=-1.04D-01 OVMax= 3.04D-02

 Cycle   3  Pass 1  IDiag  1:
 E= -78.0039551033829     Delta-E=       -0.013125303579 Rises=F Damp=F
 DIIS: error= 3.42D-03 at cycle   3 NSaved=   3.
 NSaved= 3 IEnMin= 3 EnMin= -78.0039551033829     IErMin= 3 ErrMin= 3.42D-03
 ErrMax= 3.42D-03 EMaxC= 1.00D-01 BMatC= 1.54D-04 BMatP= 1.29D-02
 IDIUse=3 WtCom= 9.66D-01 WtEn= 3.42D-02
 Coeff-Com: -0.221D-01 0.430D-01 0.979D+00
 Coeff-En:   0.000D+00 0.000D+00 0.100D+01
 Coeff:     -0.213D-01 0.415D-01 0.980D+00
 Gap=     0.548 Goal=   None    Shift=    0.000
 RMSDP=4.55D-04 MaxDP=3.48D-03 DE=-1.31D-02 OVMax= 4.50D-03

 Cycle   4  Pass 1  IDiag  1:
 E= -78.0041555530344     Delta-E=       -0.000200449651 Rises=F Damp=F
 DIIS: error= 3.06D-04 at cycle   4 NSaved=   4.
 NSaved= 4 IEnMin= 4 EnMin= -78.0041555530344     IErMin= 4 ErrMin= 3.06D-04
 ErrMax= 3.06D-04 EMaxC= 1.00D-01 BMatC= 1.48D-06 BMatP= 1.54D-04
 IDIUse=3 WtCom= 9.97D-01 WtEn= 3.06D-03
 Coeff-Com:  0.664D-02-0.226D-01-0.341D+00 0.136D+01
 Coeff-En:   0.000D+00 0.000D+00 0.000D+00 0.100D+01
 Coeff:      0.662D-02-0.225D-01-0.340D+00 0.136D+01
 Gap=     0.548 Goal=   None    Shift=    0.000
 RMSDP=1.06D-04 MaxDP=5.26D-04 DE=-2.00D-04 OVMax= 5.82D-04

 Cycle   5  Pass 1  IDiag  1:
 E= -78.0041585923156     Delta-E=       -0.000003039281 Rises=F Damp=F
 DIIS: error= 2.16D-05 at cycle   5 NSaved=   5.
 NSaved= 5 IEnMin= 5 EnMin= -78.0041585923156     IErMin= 5 ErrMin= 2.16D-05
 ErrMax= 2.16D-05 EMaxC= 1.00D-01 BMatC= 6.36D-09 BMatP= 1.48D-06
 IDIUse=1 WtCom= 1.00D+00 WtEn= 0.00D+00
 Coeff-Com: -0.154D-02 0.533D-02 0.796D-01-0.346D+00 0.126D+01
 Coeff:     -0.154D-02 0.533D-02 0.796D-01-0.346D+00 0.126D+01
 Gap=     0.548 Goal=   None    Shift=    0.000
 RMSDP=1.01D-05 MaxDP=6.47D-05 DE=-3.04D-06 OVMax= 4.38D-05

 Cycle   6  Pass 1  IDiag  1:
 E= -78.0041586067408     Delta-E=       -0.000000014425 Rises=F Damp=F
 DIIS: error= 2.33D-06 at cycle   6 NSaved=   6.
 NSaved= 6 IEnMin= 6 EnMin= -78.0041586067408     IErMin= 6 ErrMin= 2.33D-06
 ErrMax= 2.33D-06 EMaxC= 1.00D-01 BMatC= 7.85D-11 BMatP= 6.36D-09
 IDIUse=1 WtCom= 1.00D+00 WtEn= 0.00D+00
 Coeff-Com:  0.295D-03-0.992D-03-0.151D-01 0.669D-01-0.297D+00 0.125D+01
 Coeff:      0.295D-03-0.992D-03-0.151D-01 0.669D-01-0.297D+00 0.125D+01
 Gap=     0.548 Goal=   None    Shift=    0.000
 RMSDP=7.48D-07 MaxDP=3.51D-06 DE=-1.44D-08 OVMax= 5.62D-06

 Cycle   7  Pass 1  IDiag  1:
 E= -78.0041586069249     Delta-E=       -0.000000000184 Rises=F Damp=F
 DIIS: error= 3.12D-07 at cycle   7 NSaved=   7.
 NSaved= 7 IEnMin= 7 EnMin= -78.0041586069249     IErMin= 7 ErrMin= 3.12D-07
 ErrMax= 3.12D-07 EMaxC= 1.00D-01 BMatC= 1.48D-12 BMatP= 7.85D-11
 IDIUse=1 WtCom= 1.00D+00 WtEn= 0.00D+00
 Coeff-Com: -0.270D-04 0.808D-04 0.131D-02-0.586D-02 0.307D-01-0.243D+00
 Coeff-Com:  0.122D+01
 Coeff:     -0.270D-04 0.808D-04 0.131D-02-0.586D-02 0.307D-01-0.243D+00
 Coeff:      0.122D+01
 Gap=     0.548 Goal=   None    Shift=    0.000
 RMSDP=1.17D-07 MaxDP=5.20D-07 DE=-1.84D-10 OVMax= 1.08D-06

 Cycle   8  Pass 1  IDiag  1:
 E= -78.0041586069287     Delta-E=       -0.000000000004 Rises=F Damp=F
 DIIS: error= 2.17D-08 at cycle   8 NSaved=   8.
 NSaved= 8 IEnMin= 8 EnMin= -78.0041586069287     IErMin= 8 ErrMin= 2.17D-08
 ErrMax= 2.17D-08 EMaxC= 1.00D-01 BMatC= 1.02D-14 BMatP= 1.48D-12
 IDIUse=1 WtCom= 1.00D+00 WtEn= 0.00D+00
 Coeff-Com:  0.205D-07 0.232D-05 0.144D-04-0.496D-04-0.928D-03 0.256D-01
 Coeff-Com: -0.214D+00 0.119D+01
 Coeff:      0.205D-07 0.232D-05 0.144D-04-0.496D-04-0.928D-03 0.256D-01
 Coeff:     -0.214D+00 0.119D+01
 Gap=     0.548 Goal=   None    Shift=    0.000
 RMSDP=1.12D-08 MaxDP=5.35D-08 DE=-3.81D-12 OVMax= 7.79D-08

 Cycle   9  Pass 1  IDiag  1:
 E= -78.0041586069286     Delta-E=        0.000000000000 Rises=F Damp=F
 DIIS: error= 1.59D-09 at cycle   9 NSaved=   9.
 NSaved= 9 IEnMin= 8 EnMin= -78.0041586069287     IErMin= 9 ErrMin= 1.59D-09
 ErrMax= 1.59D-09 EMaxC= 1.00D-01 BMatC= 5.33D-17 BMatP= 1.02D-14
 IDIUse=1 WtCom= 1.00D+00 WtEn= 0.00D+00
 Coeff-Com: -0.266D-07-0.313D-06-0.140D-05 0.381D-05 0.171D-03-0.421D-02
 Coeff-Com:  0.356D-01-0.222D+00 0.119D+01
 Coeff:     -0.266D-07-0.313D-06-0.140D-05 0.381D-05 0.171D-03-0.421D-02
 Coeff:      0.356D-01-0.222D+00 0.119D+01
 Gap=     0.548 Goal=   None    Shift=    0.000
 RMSDP=5.57D-10 MaxDP=2.68D-09 DE= 8.53D-14 OVMax= 2.18D-09

 SCF Done:  E(RHF) =  -78.0041586069     A.U. after    9 cycles
             Convg  =    0.5574D-09             -V/T =  1.9997
 KE= 7.802633332279D+01 PE=-2.481122076918D+02 EE= 5.865820546041D+01
 Leave Link  502 at Wed May 26 13:52:27 2021, MaxMem=   33554432 cpu:       0.1
 (Enter /home/emil/gauss09/g09/l601.exe)
 Copying SCF densities to generalized density rwf, IOpCl= 0 IROHF=0.

 **********************************************************************

            Population analysis using the SCF density.

 **********************************************************************

 Orbital symmetries:
       Occupied  (AG) (B1U) (AG) (B1U) (B2U) (AG) (B3G) (B3U)
       Virtual   (B2G) (AG) (B2U) (B1U) (B3G) (B1U) (AG) (B3U)
                 (B2U) (B2G) (AG) (B1U) (B3G) (B2U) (AG) (B1U)
                 (B1U) (B3G)
 The electronic state is 1-AG.
 Alpha  occ. eigenvalues --  -11.23192 -11.23025  -1.03507  -0.78916  -0.64177
 Alpha  occ. eigenvalues --   -0.58428  -0.49963  -0.37265
 Alpha virt. eigenvalues --    0.17511   0.26318   0.28928   0.30694   0.39032
 Alpha virt. eigenvalues --    0.48911   0.67865   0.78394   0.78671   0.88964
 Alpha virt. eigenvalues --    0.89409   0.99620   1.15241   1.19170   1.23266
 Alpha virt. eigenvalues --    1.24409   1.38157   1.52250
          Condensed to atoms (all electrons):
              1          2          3          4          5          6
     1  C    5.025421   0.593724   0.396150   0.396150  -0.042020  -0.042020
     2  C    0.593724   5.025421  -0.042020  -0.042020   0.396150   0.396150
     3  H    0.396150  -0.042020   0.509398  -0.026708  -0.003317   0.002794
     4  H    0.396150  -0.042020  -0.026708   0.509398   0.002794  -0.003317
     5  H   -0.042020   0.396150  -0.003317   0.002794   0.509398  -0.026708
     6  H   -0.042020   0.396150   0.002794  -0.003317  -0.026708   0.509398
 Mulliken atomic charges:
              1
     1  C   -0.327406
     2  C   -0.327406
     3  H    0.163703
     4  H    0.163703
     5  H    0.163703
     6  H    0.163703
 Sum of Mulliken atomic charges =   0.00000
 Mulliken charges with hydrogens summed into heavy atoms:
              1
     1  C    0.000000
     2  C    0.000000
 Sum of Mulliken charges with hydrogens summed into heavy atoms =   0.00000
 Electronic spatial extent (au):  <R**2>=             82.5668
 Charge=              0.0000 electrons
 Dipole moment (field-independent basis, Debye):
    X=              0.0000    Y=              0.0000    Z=              0.0000  Tot=              0.0000
 Quadrupole moment (field-independent basis, Debye-Ang):
   XX=            -15.5785   YY=            -12.3154   ZZ=            -12.1660
   XY=              0.0000   XZ=              0.0000   YZ=              0.0000
 Traceless Quadrupole moment (field-independent basis, Debye-Ang):
   XX=             -2.2252   YY=              1.0379   ZZ=              1.1873
   XY=              0.0000   XZ=              0.0000   YZ=              0.0000
 Octapole moment (field-independent basis, Debye-Ang**2):
  XXX=              0.0000  YYY=              0.0000  ZZZ=              0.0000  XYY=              0.0000
  XXY=              0.0000  XXZ=              0.0000  XZZ=              0.0000  YZZ=              0.0000
  YYZ=              0.0000  XYZ=              0.0000
 Hexadecapole moment (field-independent basis, Debye-Ang**3):
 XXXX=            -16.7394 YYYY=            -26.0101 ZZZZ=            -66.3024 XXXY=              0.0000
 XXXZ=              0.0000 YYYX=              0.0000 YYYZ=              0.0000 ZZZX=              0.0000
 ZZZY=              0.0000 XXYY=             -7.7247 XXZZ=            -14.9267 YYZZ=            -13.0359
 XXYZ=              0.0000 YYXZ=              0.0000 ZZXY=              0.0000
 N-N= 3.342351030171D+01 E-N=-2.481122076787D+02  KE= 7.802633332279D+01
 Symmetry AG   KE= 3.758420195971D+01
 Symmetry B1G  KE= 0.000000000000D+00
 Symmetry B2G  KE= 3.296530360480D-32
 Symmetry B3G  KE= 2.086922323759D+00
 Symmetry AU   KE= 0.000000000000D+00
 Symmetry B1U  KE= 3.456055201231D+01
 Symmetry B2U  KE= 1.852478902388D+00
 Symmetry B3U  KE= 1.942178124624D+00
 No NMR shielding tensors so no spin-rotation constants.
 Leave Link  601 at Wed May 26 13:52:27 2021, MaxMem=   33554432 cpu:       0.1
 (Enter /home/emil/gauss09/g09/l9999.exe)
 1\1\GINC-KONG-SRV\SP\RHF\6-31G\C2H4\EMIL\26-May-2021\0\\#P HF/6-31G\\C
 2H4\\0,1\C\C,1,1.33118693\H,1,1.08147734,2,121.56243613\H,1,1.08147734
 ,2,121.56243613,3,180.,0\H,2,1.08147734,1,121.56243613,3,0.,0\H,2,1.08
 147734,1,121.56243613,3,180.,0\\Version=EM64L-G09RevB.01\State=1-AG\HF
 =-78.0041586\RMSD=5.574e-10\Dipole=0.,0.,0.\Quadrupole=0.7716494,-1.65
 44025,0.882753,0.,0.,0.\PG=D02H [C2"(C1.C1),SG(H4)]\\@


 BLACK HOLES SUCK.
 Job cpu time:  0 days  0 hours  0 minutes  0.6 seconds.
 File lengths (MBytes):  RWF=      5 Int=      0 D2E=      0 Chk=      1 Scr=      1
 Normal termination of Gaussian 09 at Wed May 26 13:52:27 2021.
