 Entering Gaussian System, Link 0=g09
 Input=C2H5.com
 Output=C2H5.log
 Initial command:
 /home/emil/gauss09/g09/l1.exe /home/emil/scratch/g09/Gau-9853.inp -scrdir=/home/emil/scratch/g09/
 Entering Link 1 = /home/emil/gauss09/g09/l1.exe PID=      9855.
  
 Copyright (c) 1988,1990,1992,1993,1995,1998,2003,2009,2010,
            Gaussian, Inc.  All Rights Reserved.
  
 This is part of the Gaussian(R) 09 program.  It is based on
 the Gaussian(R) 03 system (copyright 2003, Gaussian, Inc.),
 the Gaussian(R) 98 system (copyright 1998, Gaussian, Inc.),
 the Gaussian(R) 94 system (copyright 1995, Gaussian, Inc.),
 the Gaussian 92(TM) system (copyright 1992, Gaussian, Inc.),
 the Gaussian 90(TM) system (copyright 1990, Gaussian, Inc.),
 the Gaussian 88(TM) system (copyright 1988, Gaussian, Inc.),
 the Gaussian 86(TM) system (copyright 1986, Carnegie Mellon
 University), and the Gaussian 82(TM) system (copyright 1983,
 Carnegie Mellon University). Gaussian is a federally registered
 trademark of Gaussian, Inc.
  
 This software contains proprietary and confidential information,
 including trade secrets, belonging to Gaussian, Inc.
  
 This software is provided under written license and may be
 used, copied, transmitted, or stored only in accord with that
 written license.
  
 The following legend is applicable only to US Government
 contracts under FAR:
  
                    RESTRICTED RIGHTS LEGEND
  
 Use, reproduction and disclosure by the US Government is
 subject to restrictions as set forth in subparagraphs (a)
 and (c) of the Commercial Computer Software - Restricted
 Rights clause in FAR 52.227-19.
  
 Gaussian, Inc.
 340 Quinnipiac St., Bldg. 40, Wallingford CT 06492
  
  
 ---------------------------------------------------------------
 Warning -- This program may not be used in any manner that
 competes with the business of Gaussian, Inc. or will provide
 assistance to any competitor of Gaussian, Inc.  The licensee
 of this program is prohibited from giving any competitor of
 Gaussian, Inc. access to this program.  By using this program,
 the user acknowledges that Gaussian, Inc. is engaged in the
 business of creating and licensing software in the field of
 computational chemistry and represents and warrants to the
 licensee that it is not a competitor of Gaussian, Inc. and that
 it will not use this program in any manner prohibited above.
 ---------------------------------------------------------------
  

 Cite this work as:
 Gaussian 09, Revision B.01,
 M. J. Frisch, G. W. Trucks, H. B. Schlegel, G. E. Scuseria, 
 M. A. Robb, J. R. Cheeseman, G. Scalmani, V. Barone, B. Mennucci, 
 G. A. Petersson, H. Nakatsuji, M. Caricato, X. Li, H. P. Hratchian, 
 A. F. Izmaylov, J. Bloino, G. Zheng, J. L. Sonnenberg, M. Hada, 
 M. Ehara, K. Toyota, R. Fukuda, J. Hasegawa, M. Ishida, T. Nakajima, 
 Y. Honda, O. Kitao, H. Nakai, T. Vreven, J. A. Montgomery, Jr., 
 J. E. Peralta, F. Ogliaro, M. Bearpark, J. J. Heyd, E. Brothers, 
 K. N. Kudin, V. N. Staroverov, T. Keith, R. Kobayashi, J. Normand, 
 K. Raghavachari, A. Rendell, J. C. Burant, S. S. Iyengar, J. Tomasi, 
 M. Cossi, N. Rega, J. M. Millam, M. Klene, J. E. Knox, J. B. Cross, 
 V. Bakken, C. Adamo, J. Jaramillo, R. Gomperts, R. E. Stratmann, 
 O. Yazyev, A. J. Austin, R. Cammi, C. Pomelli, J. W. Ochterski, 
 R. L. Martin, K. Morokuma, V. G. Zakrzewski, G. A. Voth, 
 P. Salvador, J. J. Dannenberg, S. Dapprich, A. D. Daniels, 
 O. Farkas, J. B. Foresman, J. V. Ortiz, J. Cioslowski, 
 and D. J. Fox, Gaussian, Inc., Wallingford CT, 2010.
 
 ******************************************
 Gaussian 09:  EM64L-G09RevB.01 12-Aug-2010
                26-May-2021 
 ******************************************
 -----------
 #P HF/6-31G
 -----------
 1/38=1/1;
 2/12=2,17=6,18=5,40=1/2;
 3/5=1,6=6,11=9,16=1,25=1,30=1/1,2,3;
 4//1;
 5/5=2,38=5/2;
 6/7=2,8=2,9=2,10=2,28=1/1;
 99/5=1,9=1/99;
 Leave Link    1 at Wed May 26 13:54:51 2021, MaxMem=          0 cpu:       0.0
 (Enter /home/emil/gauss09/g09/l101.exe)
 ----
 C2H5
 ----
 Symbolic Z-matrix:
 Charge =  0 Multiplicity = 2
 C
 C                    1    r1
 H                    2    r2       1    a1
 H                    1    r3       2    a2       3    d1       0
 H                    2    r4       1    a3       4    d2       0
 H                    2    r5       1    a4       4    d3       0
 H                    1    r6       2    a5       3    d4       0
       Variables:
  r1                    1.49014                  
  r2                    1.0902                   
  r3                    1.07966                  
  r4                    1.09711                  
  r5                    1.09036                  
  r6                    1.07961                  
  a1                  111.58155                  
  a2                  120.80192                  
  a3                  111.70339                  
  a4                  111.57276                  
  a5                  120.84716                  
  d1                 -156.20674                  
  d2                   84.35051                  
  d3                  -35.02413                  
  d4                   33.5825                   
 
 NAtoms=      7 NQM=      7 NQMF=      0 NMic=      0 NMicF=      0 NTot=      7.
                    Isotopes and Nuclear Properties:
 (Nuclear quadrupole moments (NQMom) in fm**2, nuclear magnetic moments (NMagM)
  in nuclear magnetons)

  Atom         1           2           3           4           5           6           7
 IAtWgt=          12          12           1           1           1           1           1
 AtmWgt=  12.0000000  12.0000000   1.0078250   1.0078250   1.0078250   1.0078250   1.0078250
 NucSpn=           0           0           1           1           1           1           1
 AtZEff=   0.0000000   0.0000000   0.0000000   0.0000000   0.0000000   0.0000000   0.0000000
 NQMom=    0.0000000   0.0000000   0.0000000   0.0000000   0.0000000   0.0000000   0.0000000
 NMagM=    0.0000000   0.0000000   2.7928460   2.7928460   2.7928460   2.7928460   2.7928460
 Leave Link  101 at Wed May 26 13:54:51 2021, MaxMem=   33554432 cpu:       0.1
 (Enter /home/emil/gauss09/g09/l202.exe)
                          Input orientation:                          
 ---------------------------------------------------------------------
 Center     Atomic      Atomic             Coordinates (Angstroms)
 Number     Number       Type             X           Y           Z
 ---------------------------------------------------------------------
      1          6           0        0.000000    0.000000    0.000000
      2          6           0        0.000000    0.000000    1.490139
      3          1           0        1.013767    0.000000    1.891141
      4          1           0       -0.848549    0.374135   -0.552865
      5          1           0       -0.501058   -0.887685    1.895852
      6          1           0       -0.525008    0.867485    1.891046
      7          1           0        0.772183   -0.512697   -0.553572
 ---------------------------------------------------------------------
                    Distance matrix (angstroms):
                    1          2          3          4          5
     1  C    0.000000
     2  C    1.490139   0.000000
     3  H    2.145725   1.090195   0.000000
     4  H    1.079663   2.243631   3.095377   0.000000
     5  H    2.152509   1.097108   1.755762   2.776536   0.000000
     6  H    2.145745   1.090362   1.766454   2.514115   1.755339
     7  H    1.079614   2.244077   2.509550   1.847497   2.785935
                    6          7
     6  H    0.000000
     7  H    3.092534   0.000000
 Stoichiometry    C2H5(2)
 Framework group  C1[X(C2H5)]
 Deg. of freedom    15
 Full point group                 C1      NOp   1
 Largest Abelian subgroup         C1      NOp   1
 Largest concise Abelian subgroup C1      NOp   1
                         Standard orientation:                         
 ---------------------------------------------------------------------
 Center     Atomic      Atomic             Coordinates (Angstroms)
 Number     Number       Type             X           Y           Z
 ---------------------------------------------------------------------
      1          6           0        0.794606    0.000006   -0.022395
      2          6           0       -0.695372    0.000170   -0.000460
      3          1           0       -1.103395    0.889592   -0.481056
      4          1           0        1.348473   -0.924049    0.048485
      5          1           0       -1.086039   -0.013327    1.024646
      6          1           0       -1.103825   -0.876718   -0.503574
      7          1           0        1.349384    0.923447    0.048633
 ---------------------------------------------------------------------
 Rotational constants (GHZ):    104.2258869     22.7282770     21.0824471
 Leave Link  202 at Wed May 26 13:54:51 2021, MaxMem=   33554432 cpu:       0.0
 (Enter /home/emil/gauss09/g09/l301.exe)
 Standard basis: 6-31G (6D, 7F)
 Ernie: Thresh=  0.10000D-02 Tol=  0.10000D-05 Strict=F.
 There are    28 symmetry adapted basis functions of A   symmetry.
 Integral buffers will be    131072 words long.
 Raffenetti 2 integral format.
 Two-electron integral symmetry is turned on.
    28 basis functions,    64 primitive gaussians,    28 cartesian basis functions
     9 alpha electrons        8 beta electrons
       nuclear repulsion energy        36.9816503662 Hartrees.
 IExCor=    0 DFT=F Ex=HF Corr=None ExCW=0 ScaHFX=  1.000000
 ScaDFX=  1.000000  1.000000  1.000000  1.000000 ScalE2=  1.000000  1.000000
 IRadAn=      0 IRanWt=     -1 IRanGd=            0 ICorTp=0
 NAtoms=    7 NActive=    7 NUniq=    7 SFac= 1.00D+00 NAtFMM=   50 NAOKFM=F Big=F
 Leave Link  301 at Wed May 26 13:54:51 2021, MaxMem=   33554432 cpu:       0.1
 (Enter /home/emil/gauss09/g09/l302.exe)
 NPDir=0 NMtPBC=     1 NCelOv=     1 NCel=       1 NClECP=     1 NCelD=      1
         NCelK=      1 NCelE2=     1 NClLst=     1 CellRange=     0.0.
 One-electron integrals computed using PRISM.
 NBasis=    28 RedAO= T  NBF=    28
 NBsUse=    28 1.00D-06 NBFU=    28
 Leave Link  302 at Wed May 26 13:54:52 2021, MaxMem=   33554432 cpu:       0.2
 (Enter /home/emil/gauss09/g09/l303.exe)
 DipDrv:  MaxL=1.
 Leave Link  303 at Wed May 26 13:54:52 2021, MaxMem=   33554432 cpu:       0.0
 (Enter /home/emil/gauss09/g09/l401.exe)
 Harris functional with IExCor=  205 diagonalized for initial guess.
 ExpMin= 1.61D-01 ExpMax= 3.05D+03 ExpMxC= 4.57D+02 IAcc=1 IRadAn=         1 AccDes= 0.00D+00
 HarFok:  IExCor=  205 AccDes= 0.00D+00 IRadAn=         1 IDoV= 1
 ScaDFX=  1.000000  1.000000  1.000000  1.000000
 FoFCou: FMM=F IPFlag=           0 FMFlag=      100000 FMFlg1=           0
         NFxFlg=           0 DoJE=T BraDBF=F KetDBF=T FulRan=T
         Omega=  0.000000  0.000000  1.000000  0.000000  0.000000 ICntrl=     500 IOpCl=  0
         NMat0=    1 NMatS0=    1 NMatT0=    0 NMatD0=    1 NMtDS0=    0 NMtDT0=    0
         I1Cent=           4 NGrid=           0.
 Petite list used in FoFCou.
 Harris En= -78.7491018459273    
 Initial guess orbital symmetries:
 Alpha Orbitals:
       Occupied  (A) (A) (A) (A) (A) (A) (A) (A) (A)
       Virtual   (A) (A) (A) (A) (A) (A) (A) (A) (A) (A) (A) (A)
                 (A) (A) (A) (A) (A) (A) (A)
 Beta  Orbitals:
       Occupied  (A) (A) (A) (A) (A) (A) (A) (A)
       Virtual   (A) (A) (A) (A) (A) (A) (A) (A) (A) (A) (A) (A)
                 (A) (A) (A) (A) (A) (A) (A) (A)
 The electronic state of the initial guess is 2-A.
 Initial guess <Sx>= 0.0000 <Sy>= 0.0000 <Sz>= 0.5000 <S**2>= 0.7500 S= 0.5000
 Leave Link  401 at Wed May 26 13:54:52 2021, MaxMem=   33554432 cpu:       0.2
 (Enter /home/emil/gauss09/g09/l502.exe)
 UHF open shell SCF:
 Requested convergence on RMS density matrix=1.00D-08 within 128 cycles.
 Requested convergence on MAX density matrix=1.00D-06.
 Requested convergence on             energy=1.00D-06.
 No special actions if energy rises.
 Using DIIS extrapolation, IDIIS=  1040.
 Integral symmetry usage will be decided dynamically.
 Keep R1 and R2 ints in memory in canonical form, NReq=986155.
 IEnd=       20892 IEndB=       20892 NGot=    33554432 MDV=    33385723
 LenX=    33385723 LenY=    33384498
 Symmetry not used in FoFDir.
 MinBra= 0 MaxBra= 1 Meth= 1.
 IRaf=       0 NMat=   1 IRICut=       1 DoRegI=T DoRafI=F ISym2E= 0 JSym2E=0.

 Cycle   1  Pass 1  IDiag  1:
 E= -78.4371554821265    
 DIIS: error= 7.19D-02 at cycle   1 NSaved=   1.
 NSaved= 1 IEnMin= 1 EnMin= -78.4371554821265     IErMin= 1 ErrMin= 7.19D-02
 ErrMax= 7.19D-02 EMaxC= 1.00D-01 BMatC= 4.86D-01 BMatP= 4.86D-01
 IDIUse=3 WtCom= 2.81D-01 WtEn= 7.19D-01
 Coeff-Com:  0.100D+01
 Coeff-En:   0.100D+01
 Coeff:      0.100D+01
 Gap=     0.534 Goal=   None    Shift=    0.000
 Gap=     0.700 Goal=   None    Shift=    0.000
 GapD=    0.534 DampG=2.000 DampE=0.500 DampFc=1.0000 IDamp=-1.
 RMSDP=1.41D-02 MaxDP=1.17D-01              OVMax= 1.49D-01

 Cycle   2  Pass 1  IDiag  1:
 E= -78.5490217695070     Delta-E=       -0.111866287381 Rises=F Damp=F
 DIIS: error= 2.72D-02 at cycle   2 NSaved=   2.
 NSaved= 2 IEnMin= 2 EnMin= -78.5490217695070     IErMin= 2 ErrMin= 2.72D-02
 ErrMax= 2.72D-02 EMaxC= 1.00D-01 BMatC= 7.13D-02 BMatP= 4.86D-01
 IDIUse=3 WtCom= 7.28D-01 WtEn= 2.72D-01
 Coeff-Com:  0.251D+00 0.749D+00
 Coeff-En:   0.000D+00 0.100D+01
 Coeff:      0.183D+00 0.817D+00
 Gap=     0.600 Goal=   None    Shift=    0.000
 Gap=     0.696 Goal=   None    Shift=    0.000
 RMSDP=4.53D-03 MaxDP=4.42D-02 DE=-1.12D-01 OVMax= 3.75D-02

 Cycle   3  Pass 1  IDiag  1:
 E= -78.5673822487135     Delta-E=       -0.018360479206 Rises=F Damp=F
 DIIS: error= 5.58D-03 at cycle   3 NSaved=   3.
 NSaved= 3 IEnMin= 3 EnMin= -78.5673822487135     IErMin= 3 ErrMin= 5.58D-03
 ErrMax= 5.58D-03 EMaxC= 1.00D-01 BMatC= 2.03D-03 BMatP= 7.13D-02
 IDIUse=3 WtCom= 9.44D-01 WtEn= 5.58D-02
 Coeff-Com: -0.345D-01 0.450D-01 0.990D+00
 Coeff-En:   0.000D+00 0.000D+00 0.100D+01
 Coeff:     -0.326D-01 0.425D-01 0.990D+00
 Gap=     0.598 Goal=   None    Shift=    0.000
 Gap=     0.653 Goal=   None    Shift=    0.000
 RMSDP=9.70D-04 MaxDP=8.65D-03 DE=-1.84D-02 OVMax= 1.36D-02

 Cycle   4  Pass 1  IDiag  1:
 E= -78.5682960196746     Delta-E=       -0.000913770961 Rises=F Damp=F
 DIIS: error= 1.83D-03 at cycle   4 NSaved=   4.
 NSaved= 4 IEnMin= 4 EnMin= -78.5682960196746     IErMin= 4 ErrMin= 1.83D-03
 ErrMax= 1.83D-03 EMaxC= 1.00D-01 BMatC= 2.62D-04 BMatP= 2.03D-03
 IDIUse=3 WtCom= 9.82D-01 WtEn= 1.83D-02
 Coeff-Com:  0.904D-02-0.535D-01-0.490D+00 0.153D+01
 Coeff-En:   0.000D+00 0.000D+00 0.000D+00 0.100D+01
 Coeff:      0.888D-02-0.525D-01-0.481D+00 0.153D+01
 Gap=     0.600 Goal=   None    Shift=    0.000
 Gap=     0.657 Goal=   None    Shift=    0.000
 RMSDP=6.32D-04 MaxDP=4.99D-03 DE=-9.14D-04 OVMax= 8.24D-03

 Cycle   5  Pass 1  IDiag  1:
 E= -78.5685200272779     Delta-E=       -0.000224007603 Rises=F Damp=F
 DIIS: error= 1.09D-03 at cycle   5 NSaved=   5.
 NSaved= 5 IEnMin= 5 EnMin= -78.5685200272779     IErMin= 5 ErrMin= 1.09D-03
 ErrMax= 1.09D-03 EMaxC= 1.00D-01 BMatC= 5.27D-05 BMatP= 2.62D-04
 IDIUse=3 WtCom= 9.89D-01 WtEn= 1.09D-02
 Coeff-Com:  0.638D-02-0.107D-01-0.207D+00 0.380D-01 0.117D+01
 Coeff-En:   0.000D+00 0.000D+00 0.000D+00 0.000D+00 0.100D+01
 Coeff:      0.631D-02-0.106D-01-0.205D+00 0.376D-01 0.117D+01
 Gap=     0.602 Goal=   None    Shift=    0.000
 Gap=     0.657 Goal=   None    Shift=    0.000
 RMSDP=3.16D-04 MaxDP=2.53D-03 DE=-2.24D-04 OVMax= 2.50D-03

 Cycle   6  Pass 1  IDiag  1:
 E= -78.5685655166254     Delta-E=       -0.000045489347 Rises=F Damp=F
 DIIS: error= 4.10D-04 at cycle   6 NSaved=   6.
 NSaved= 6 IEnMin= 6 EnMin= -78.5685655166254     IErMin= 6 ErrMin= 4.10D-04
 ErrMax= 4.10D-04 EMaxC= 1.00D-01 BMatC= 8.69D-06 BMatP= 5.27D-05
 IDIUse=3 WtCom= 9.96D-01 WtEn= 4.10D-03
 Coeff-Com: -0.498D-02 0.177D-01 0.207D+00-0.353D+00-0.581D+00 0.171D+01
 Coeff-En:   0.000D+00 0.000D+00 0.000D+00 0.000D+00 0.000D+00 0.100D+01
 Coeff:     -0.496D-02 0.177D-01 0.206D+00-0.351D+00-0.578D+00 0.171D+01
 Gap=     0.602 Goal=   None    Shift=    0.000
 Gap=     0.658 Goal=   None    Shift=    0.000
 RMSDP=1.87D-04 MaxDP=1.42D-03 DE=-4.55D-05 OVMax= 1.62D-03

 Cycle   7  Pass 1  IDiag  1:
 E= -78.5685752084335     Delta-E=       -0.000009691808 Rises=F Damp=F
 DIIS: error= 7.60D-05 at cycle   7 NSaved=   7.
 NSaved= 7 IEnMin= 7 EnMin= -78.5685752084335     IErMin= 7 ErrMin= 7.60D-05
 ErrMax= 7.60D-05 EMaxC= 1.00D-01 BMatC= 3.96D-07 BMatP= 8.69D-06
 IDIUse=1 WtCom= 1.00D+00 WtEn= 0.00D+00
 Coeff-Com:  0.270D-02-0.104D-01-0.116D+00 0.209D+00 0.305D+00-0.105D+01
 Coeff-Com:  0.166D+01
 Coeff:      0.270D-02-0.104D-01-0.116D+00 0.209D+00 0.305D+00-0.105D+01
 Coeff:      0.166D+01
 Gap=     0.602 Goal=   None    Shift=    0.000
 Gap=     0.658 Goal=   None    Shift=    0.000
 RMSDP=3.78D-05 MaxDP=1.94D-04 DE=-9.69D-06 OVMax= 4.40D-04

 Cycle   8  Pass 1  IDiag  1:
 E= -78.5685756335597     Delta-E=       -0.000000425126 Rises=F Damp=F
 DIIS: error= 2.65D-05 at cycle   8 NSaved=   8.
 NSaved= 8 IEnMin= 8 EnMin= -78.5685756335597     IErMin= 8 ErrMin= 2.65D-05
 ErrMax= 2.65D-05 EMaxC= 1.00D-01 BMatC= 5.09D-08 BMatP= 3.96D-07
 IDIUse=1 WtCom= 1.00D+00 WtEn= 0.00D+00
 Coeff-Com: -0.149D-02 0.577D-02 0.648D-01-0.119D+00-0.165D+00 0.604D+00
 Coeff-Com: -0.122D+01 0.183D+01
 Coeff:     -0.149D-02 0.577D-02 0.648D-01-0.119D+00-0.165D+00 0.604D+00
 Coeff:     -0.122D+01 0.183D+01
 Gap=     0.602 Goal=   None    Shift=    0.000
 Gap=     0.658 Goal=   None    Shift=    0.000
 RMSDP=1.46D-05 MaxDP=9.08D-05 DE=-4.25D-07 OVMax= 1.10D-04

 Cycle   9  Pass 1  IDiag  1:
 E= -78.5685756903435     Delta-E=       -0.000000056784 Rises=F Damp=F
 DIIS: error= 1.11D-05 at cycle   9 NSaved=   9.
 NSaved= 9 IEnMin= 9 EnMin= -78.5685756903435     IErMin= 9 ErrMin= 1.11D-05
 ErrMax= 1.11D-05 EMaxC= 1.00D-01 BMatC= 5.98D-09 BMatP= 5.09D-08
 IDIUse=1 WtCom= 1.00D+00 WtEn= 0.00D+00
 Coeff-Com:  0.568D-03-0.218D-02-0.248D-01 0.459D-01 0.615D-01-0.232D+00
 Coeff-Com:  0.541D+00-0.114D+01 0.175D+01
 Coeff:      0.568D-03-0.218D-02-0.248D-01 0.459D-01 0.615D-01-0.232D+00
 Coeff:      0.541D+00-0.114D+01 0.175D+01
 Gap=     0.602 Goal=   None    Shift=    0.000
 Gap=     0.658 Goal=   None    Shift=    0.000
 RMSDP=5.15D-06 MaxDP=3.92D-05 DE=-5.68D-08 OVMax= 4.57D-05

 Cycle  10  Pass 1  IDiag  1:
 E= -78.5685756974309     Delta-E=       -0.000000007087 Rises=F Damp=F
 DIIS: error= 2.32D-06 at cycle  10 NSaved=  10.
 NSaved=10 IEnMin=10 EnMin= -78.5685756974309     IErMin=10 ErrMin= 2.32D-06
 ErrMax= 2.32D-06 EMaxC= 1.00D-01 BMatC= 4.54D-10 BMatP= 5.98D-09
 IDIUse=1 WtCom= 1.00D+00 WtEn= 0.00D+00
 Coeff-Com: -0.868D-04 0.317D-03 0.376D-02-0.686D-02-0.874D-02 0.340D-01
 Coeff-Com: -0.982D-01 0.263D+00-0.684D+00 0.150D+01
 Coeff:     -0.868D-04 0.317D-03 0.376D-02-0.686D-02-0.874D-02 0.340D-01
 Coeff:     -0.982D-01 0.263D+00-0.684D+00 0.150D+01
 Gap=     0.602 Goal=   None    Shift=    0.000
 Gap=     0.658 Goal=   None    Shift=    0.000
 RMSDP=1.47D-06 MaxDP=1.09D-05 DE=-7.09D-09 OVMax= 1.41D-05

 Cycle  11  Pass 1  IDiag  1:
 E= -78.5685756979392     Delta-E=       -0.000000000508 Rises=F Damp=F
 DIIS: error= 7.70D-07 at cycle  11 NSaved=  11.
 NSaved=11 IEnMin=11 EnMin= -78.5685756979392     IErMin=11 ErrMin= 7.70D-07
 ErrMax= 7.70D-07 EMaxC= 1.00D-01 BMatC= 3.83D-11 BMatP= 4.54D-10
 IDIUse=1 WtCom= 1.00D+00 WtEn= 0.00D+00
 Coeff-Com:  0.326D-04-0.114D-03-0.140D-02 0.251D-02 0.293D-02-0.118D-01
 Coeff-Com:  0.402D-01-0.121D+00 0.373D+00-0.104D+01 0.176D+01
 Coeff:      0.326D-04-0.114D-03-0.140D-02 0.251D-02 0.293D-02-0.118D-01
 Coeff:      0.402D-01-0.121D+00 0.373D+00-0.104D+01 0.176D+01
 Gap=     0.602 Goal=   None    Shift=    0.000
 Gap=     0.658 Goal=   None    Shift=    0.000
 RMSDP=4.19D-07 MaxDP=3.61D-06 DE=-5.08D-10 OVMax= 3.35D-06

 Cycle  12  Pass 1  IDiag  1:
 E= -78.5685756979769     Delta-E=       -0.000000000038 Rises=F Damp=F
 DIIS: error= 1.87D-07 at cycle  12 NSaved=  12.
 NSaved=12 IEnMin=12 EnMin= -78.5685756979769     IErMin=12 ErrMin= 1.87D-07
 ErrMax= 1.87D-07 EMaxC= 1.00D-01 BMatC= 2.37D-12 BMatP= 3.83D-11
 IDIUse=1 WtCom= 1.00D+00 WtEn= 0.00D+00
 Coeff-Com: -0.483D-05 0.145D-04 0.207D-03-0.361D-03-0.237D-03 0.131D-02
 Coeff-Com: -0.742D-02 0.271D-01-0.100D+00 0.338D+00-0.798D+00 0.154D+01
 Coeff:     -0.483D-05 0.145D-04 0.207D-03-0.361D-03-0.237D-03 0.131D-02
 Coeff:     -0.742D-02 0.271D-01-0.100D+00 0.338D+00-0.798D+00 0.154D+01
 Gap=     0.602 Goal=   None    Shift=    0.000
 Gap=     0.658 Goal=   None    Shift=    0.000
 RMSDP=1.09D-07 MaxDP=1.00D-06 DE=-3.78D-11 OVMax= 9.40D-07

 Cycle  13  Pass 1  IDiag  1:
 E= -78.5685756979792     Delta-E=       -0.000000000002 Rises=F Damp=F
 DIIS: error= 2.32D-08 at cycle  13 NSaved=  13.
 NSaved=13 IEnMin=13 EnMin= -78.5685756979792     IErMin=13 ErrMin= 2.32D-08
 ErrMax= 2.32D-08 EMaxC= 1.00D-01 BMatC= 8.18D-14 BMatP= 2.37D-12
 IDIUse=1 WtCom= 1.00D+00 WtEn= 0.00D+00
 Coeff-Com:  0.115D-06 0.351D-06-0.524D-05 0.715D-05-0.587D-04 0.111D-03
 Coeff-Com:  0.617D-03-0.321D-02 0.150D-01-0.598D-01 0.177D+00-0.521D+00
 Coeff-Com:  0.139D+01
 Coeff:      0.115D-06 0.351D-06-0.524D-05 0.715D-05-0.587D-04 0.111D-03
 Coeff:      0.617D-03-0.321D-02 0.150D-01-0.598D-01 0.177D+00-0.521D+00
 Coeff:      0.139D+01
 Gap=     0.602 Goal=   None    Shift=    0.000
 Gap=     0.658 Goal=   None    Shift=    0.000
 RMSDP=1.83D-08 MaxDP=1.28D-07 DE=-2.25D-12 OVMax= 1.33D-07

 Cycle  14  Pass 1  IDiag  1:
 E= -78.5685756979792     Delta-E=        0.000000000000 Rises=F Damp=F
 DIIS: error= 7.61D-09 at cycle  14 NSaved=  14.
 NSaved=14 IEnMin=13 EnMin= -78.5685756979792     IErMin=14 ErrMin= 7.61D-09
 ErrMax= 7.61D-09 EMaxC= 1.00D-01 BMatC= 3.43D-15 BMatP= 8.18D-14
 IDIUse=1 WtCom= 1.00D+00 WtEn= 0.00D+00
 Coeff-Com:  0.156D-07-0.267D-06-0.754D-06 0.186D-05 0.226D-04-0.530D-04
 Coeff-Com: -0.102D-03 0.650D-03-0.347D-02 0.151D-01-0.484D-01 0.161D+00
 Coeff-Com: -0.568D+00 0.144D+01
 Coeff:      0.156D-07-0.267D-06-0.754D-06 0.186D-05 0.226D-04-0.530D-04
 Coeff:     -0.102D-03 0.650D-03-0.347D-02 0.151D-01-0.484D-01 0.161D+00
 Coeff:     -0.568D+00 0.144D+01
 Gap=     0.602 Goal=   None    Shift=    0.000
 Gap=     0.658 Goal=   None    Shift=    0.000
 RMSDP=3.43D-09 MaxDP=2.78D-08 DE= 2.84D-14 OVMax= 3.80D-08

 SCF Done:  E(UHF) =  -78.5685756980     A.U. after   14 cycles
             Convg  =    0.3428D-08             -V/T =  1.9986
 <Sx>= 0.0000 <Sy>= 0.0000 <Sz>= 0.5000 <S**2>= 0.7635 S= 0.5067
 <L.S>= 0.000000000000E+00
 KE= 7.868230308912D+01 PE=-2.565131442513D+02 EE= 6.228061509797D+01
 Annihilation of the first spin contaminant:
 S**2 before annihilation     0.7635,   after     0.7501
 Leave Link  502 at Wed May 26 13:54:52 2021, MaxMem=   33554432 cpu:       0.1
 (Enter /home/emil/gauss09/g09/l601.exe)
 Copying SCF densities to generalized density rwf, IOpCl= 1 IROHF=0.

 **********************************************************************

            Population analysis using the SCF density.

 **********************************************************************

 Orbital symmetries:
 Alpha Orbitals:
       Occupied  (A) (A) (A) (A) (A) (A) (A) (A) (A)
       Virtual   (A) (A) (A) (A) (A) (A) (A) (A) (A) (A) (A) (A)
                 (A) (A) (A) (A) (A) (A) (A)
 Beta  Orbitals:
       Occupied  (A) (A) (A) (A) (A) (A) (A) (A)
       Virtual   (A) (A) (A) (A) (A) (A) (A) (A) (A) (A) (A) (A)
                 (A) (A) (A) (A) (A) (A) (A) (A)
 The electronic state is 2-A.
 Alpha  occ. eigenvalues --  -11.22806 -11.21658  -1.03231  -0.84235  -0.61830
 Alpha  occ. eigenvalues --   -0.57474  -0.53892  -0.50043  -0.34861
 Alpha virt. eigenvalues --    0.25372   0.28196   0.29728   0.32797   0.36753
 Alpha virt. eigenvalues --    0.42261   0.73536   0.75374   0.76051   0.83407
 Alpha virt. eigenvalues --    0.88376   0.98675   1.06595   1.20475   1.20979
 Alpha virt. eigenvalues --    1.24021   1.25313   1.29433   1.53164
  Beta  occ. eigenvalues --  -11.22046 -11.20201  -0.99408  -0.78380  -0.60550
  Beta  occ. eigenvalues --   -0.54431  -0.52495  -0.49419
  Beta virt. eigenvalues --    0.16346   0.25912   0.30021   0.30231   0.33817
  Beta virt. eigenvalues --    0.37526   0.43601   0.74172   0.75663   0.82604
  Beta virt. eigenvalues --    0.90418   0.91977   0.99801   1.09540   1.21245
  Beta virt. eigenvalues --    1.21441   1.24894   1.26785   1.29695   1.54149
          Condensed to atoms (all electrons):
              1          2          3          4          5          6
     1  C    5.379174   0.272077  -0.042415   0.385569  -0.051844  -0.042706
     2  C    0.272077   5.139986   0.390104  -0.039951   0.383569   0.390059
     3  H   -0.042415   0.390104   0.551622   0.002914  -0.033607  -0.026750
     4  H    0.385569  -0.039951   0.002914   0.534139   0.000500  -0.003013
     5  H   -0.051844   0.383569  -0.033607   0.000500   0.573291  -0.033849
     6  H   -0.042706   0.390059  -0.026750  -0.003013  -0.033849   0.552027
     7  H    0.385636  -0.039835  -0.003106  -0.028826   0.000586   0.002899
              7
     1  C    0.385636
     2  C   -0.039835
     3  H   -0.003106
     4  H   -0.028826
     5  H    0.000586
     6  H    0.002899
     7  H    0.533747
 Mulliken atomic charges:
              1
     1  C   -0.285491
     2  C   -0.496008
     3  H    0.161238
     4  H    0.148670
     5  H    0.161355
     6  H    0.161335
     7  H    0.148899
 Sum of Mulliken atomic charges =   0.00000
 Mulliken charges with hydrogens summed into heavy atoms:
              1
     1  C    0.012079
     2  C   -0.012079
 Sum of Mulliken charges with hydrogens summed into heavy atoms =   0.00000
          Atomic-Atomic Spin Densities.
              1          2          3          4          5          6
     1  C    1.475120  -0.077236  -0.009903  -0.014329  -0.030451  -0.010443
     2  C   -0.077236  -0.173830   0.009610   0.000203   0.018007   0.009900
     3  H   -0.009903   0.009610   0.030606  -0.000049  -0.010176   0.002602
     4  H   -0.014329   0.000203  -0.000049  -0.103324  -0.000205   0.000857
     5  H   -0.030451   0.018007  -0.010176  -0.000205   0.107332  -0.010585
     6  H   -0.010443   0.009900   0.002602   0.000857  -0.010585   0.032526
     7  H   -0.014344   0.000198   0.000857   0.003187  -0.000210  -0.000040
              7
     1  C   -0.014344
     2  C    0.000198
     3  H    0.000857
     4  H    0.003187
     5  H   -0.000210
     6  H   -0.000040
     7  H   -0.103325
 Mulliken atomic spin densities:
              1
     1  C    1.318414
     2  C   -0.213149
     3  H    0.023546
     4  H   -0.113660
     5  H    0.073711
     6  H    0.024817
     7  H   -0.113678
 Sum of Mulliken atomic spin densities =   1.00000
 Electronic spatial extent (au):  <R**2>=             99.1360
 Charge=              0.0000 electrons
 Dipole moment (field-independent basis, Debye):
    X=             -0.1366    Y=              0.0001    Z=              0.1263  Tot=              0.1861
 Quadrupole moment (field-independent basis, Debye-Ang):
   XX=            -14.3119   YY=            -13.7425   ZZ=            -15.2091
   XY=              0.0010   XZ=              0.1790   YZ=              0.0002
 Traceless Quadrupole moment (field-independent basis, Debye-Ang):
   XX=              0.1093   YY=              0.6786   ZZ=             -0.7879
   XY=              0.0010   XZ=              0.1790   YZ=              0.0002
 Octapole moment (field-independent basis, Debye-Ang**2):
  XXX=              0.3658  YYY=              0.0204  ZZZ=              0.6258  XYY=              0.5517
  XXY=              0.0033  XXZ=              0.1965  XZZ=             -1.2134  YZZ=             -0.0185
  YYZ=             -0.3900  XYZ=             -0.0002
 Hexadecapole moment (field-independent basis, Debye-Ang**3):
 XXXX=            -84.6358 YYYY=            -27.7900 ZZZZ=            -22.5361 XXXY=              0.0046
 XXXZ=              0.4835 YYYX=             -0.0232 YYYZ=              0.0008 ZZZX=             -0.3336
 ZZZY=             -0.0003 XXYY=            -16.9287 XXZZ=            -18.4758 YYZZ=             -8.6801
 XXYZ=              0.0013 YYXZ=              0.7707 ZZXY=              0.0226
 N-N= 3.698165036619D+01 E-N=-3.806791200025D+02  KE= 1.173749840897D+02
                          Isotropic Fermi Contact Couplings
        Atom                 a.u.       MegaHertz       Gauss      10(-4) cm-1
     1  C(13)              0.26836     301.69319     107.65163     100.63402
     2  C(13)             -0.06905     -77.62057     -27.69695     -25.89144
     3  H(1)               0.01022      45.67944      16.29956      15.23702
     4  H(1)              -0.03328    -148.74177     -53.07476     -49.61491
     5  H(1)               0.03418     152.78522      54.51756      50.96366
     6  H(1)               0.01087      48.56703      17.32992      16.20022
     7  H(1)              -0.03330    -148.83637     -53.10852     -49.64647
 --------------------------------------------------------
       Center         ----  Spin Dipole Couplings  ----
                      3XX-RR        3YY-RR        3ZZ-RR
 --------------------------------------------------------
     1   Atom       -0.525779     -0.512868      1.038647
     2   Atom       -0.004682      0.005004     -0.000322
     3   Atom        0.017327     -0.010826     -0.006501
     4   Atom       -0.034719      0.048503     -0.013784
     5   Atom        0.019440     -0.005054     -0.014386
     6   Atom        0.017456     -0.010751     -0.006705
     7   Atom       -0.034567      0.048333     -0.013766
 --------------------------------------------------------
                        XY            XZ            YZ
 --------------------------------------------------------
     1   Atom       -0.000006     -0.055724     -0.000132
     2   Atom       -0.000235      0.003654      0.000056
     3   Atom       -0.008264      0.002151      0.003213
     4   Atom       -0.076069      0.003258     -0.009369
     5   Atom        0.000107     -0.006253      0.000133
     6   Atom        0.008162      0.002303     -0.003339
     7   Atom        0.076167      0.003281      0.009377
 --------------------------------------------------------


 ---------------------------------------------------------------------------------
              Anisotropic Spin Dipole Couplings in Principal Axis System
 ---------------------------------------------------------------------------------

       Atom             a.u.   MegaHertz   Gauss  10(-4) cm-1        Axes

              Baa    -0.5278   -70.821   -25.271   -23.623  0.9994  0.0007  0.0356
     1 C(13)  Bbb    -0.5129   -68.822   -24.557   -22.957 -0.0007  1.0000  0.0001
              Bcc     1.0406   139.643    49.828    46.580 -0.0356 -0.0001  0.9994
 
              Baa    -0.0068    -0.907    -0.324    -0.303  0.8695  0.0197 -0.4935
     2 C(13)  Bbb     0.0018     0.235     0.084     0.078  0.4932  0.0205  0.8697
              Bcc     0.0050     0.672     0.240     0.224 -0.0273  0.9996 -0.0081
 
              Baa    -0.0147    -7.852    -2.802    -2.619  0.2535  0.8765 -0.4091
     3 H(1)   Bbb    -0.0049    -2.623    -0.936    -0.875  0.0631  0.4071  0.9112
              Bcc     0.0196    10.475     3.738     3.494  0.9653 -0.2568  0.0479
 
              Baa    -0.0799   -42.617   -15.207   -14.215  0.8590  0.5112  0.0301
     4 H(1)   Bbb    -0.0146    -7.789    -2.779    -2.598 -0.0716  0.0616  0.9955
              Bcc     0.0945    50.405    17.986    16.813 -0.5070  0.8573 -0.0895
 
              Baa    -0.0155    -8.274    -2.952    -2.760  0.1762 -0.0143  0.9843
     5 H(1)   Bbb    -0.0051    -2.696    -0.962    -0.899 -0.0006  0.9999  0.0146
              Bcc     0.0206    10.970     3.914     3.659  0.9844  0.0032 -0.1761
 
              Baa    -0.0148    -7.879    -2.811    -2.628 -0.2504  0.8671  0.4307
     6 H(1)   Bbb    -0.0050    -2.642    -0.943    -0.881  0.0637 -0.4291  0.9010
              Bcc     0.0197    10.521     3.754     3.509  0.9660  0.2531  0.0522
 
              Baa    -0.0799   -42.627   -15.210   -14.219  0.8584 -0.5121  0.0300
     7 H(1)   Bbb    -0.0146    -7.781    -2.776    -2.595 -0.0716 -0.0617  0.9955
              Bcc     0.0945    50.407    17.987    16.814  0.5080  0.8567  0.0896
 

 ---------------------------------------------------------------------------------

 No NMR shielding tensors so no spin-rotation constants.
 Leave Link  601 at Wed May 26 13:54:52 2021, MaxMem=   33554432 cpu:       0.2
 (Enter /home/emil/gauss09/g09/l9999.exe)
 1\1\GINC-KONG-SRV\SP\UHF\6-31G\C2H5(2)\EMIL\26-May-2021\0\\#P HF/6-31G
 \\C2H5\\0,2\C\C,1,1.49013941\H,2,1.09019546,1,111.58154811\H,1,1.07966
 27,2,120.80192292,3,-156.20674238,0\H,2,1.09710761,1,111.7033882,4,84.
 35050762,0\H,2,1.09036205,1,111.57275888,4,-35.02413072,0\H,1,1.079614
 12,2,120.84716124,3,33.58250018,0\\Version=EM64L-G09RevB.01\State=2-A\
 HF=-78.5685757\S2=0.763469\S2-1=0.\S2A=0.750135\RMSD=3.428e-09\Dipole=
 -0.0234515,-0.0429006,0.0544749\Quadrupole=0.2541759,-0.3313638,0.0771
 878,-0.4574898,0.0679715,0.1256772\PG=C01 [X(C2H5)]\\@


 QED = W**5 (WHICH WAS WHAT WE WANTED)
 Job cpu time:  0 days  0 hours  0 minutes  1.0 seconds.
 File lengths (MBytes):  RWF=      5 Int=      0 D2E=      0 Chk=      1 Scr=      1
 Normal termination of Gaussian 09 at Wed May 26 13:54:52 2021.
