 Entering Gaussian System, Link 0=g09
 Input=CCH.com
 Output=CCH.log
 Initial command:
 /home/emil/gauss09/g09/l1.exe /home/emil/scratch/g09/Gau-9896.inp -scrdir=/home/emil/scratch/g09/
 Entering Link 1 = /home/emil/gauss09/g09/l1.exe PID=      9898.
  
 Copyright (c) 1988,1990,1992,1993,1995,1998,2003,2009,2010,
            Gaussian, Inc.  All Rights Reserved.
  
 This is part of the Gaussian(R) 09 program.  It is based on
 the Gaussian(R) 03 system (copyright 2003, Gaussian, Inc.),
 the Gaussian(R) 98 system (copyright 1998, Gaussian, Inc.),
 the Gaussian(R) 94 system (copyright 1995, Gaussian, Inc.),
 the Gaussian 92(TM) system (copyright 1992, Gaussian, Inc.),
 the Gaussian 90(TM) system (copyright 1990, Gaussian, Inc.),
 the Gaussian 88(TM) system (copyright 1988, Gaussian, Inc.),
 the Gaussian 86(TM) system (copyright 1986, Carnegie Mellon
 University), and the Gaussian 82(TM) system (copyright 1983,
 Carnegie Mellon University). Gaussian is a federally registered
 trademark of Gaussian, Inc.
  
 This software contains proprietary and confidential information,
 including trade secrets, belonging to Gaussian, Inc.
  
 This software is provided under written license and may be
 used, copied, transmitted, or stored only in accord with that
 written license.
  
 The following legend is applicable only to US Government
 contracts under FAR:
  
                    RESTRICTED RIGHTS LEGEND
  
 Use, reproduction and disclosure by the US Government is
 subject to restrictions as set forth in subparagraphs (a)
 and (c) of the Commercial Computer Software - Restricted
 Rights clause in FAR 52.227-19.
  
 Gaussian, Inc.
 340 Quinnipiac St., Bldg. 40, Wallingford CT 06492
  
  
 ---------------------------------------------------------------
 Warning -- This program may not be used in any manner that
 competes with the business of Gaussian, Inc. or will provide
 assistance to any competitor of Gaussian, Inc.  The licensee
 of this program is prohibited from giving any competitor of
 Gaussian, Inc. access to this program.  By using this program,
 the user acknowledges that Gaussian, Inc. is engaged in the
 business of creating and licensing software in the field of
 computational chemistry and represents and warrants to the
 licensee that it is not a competitor of Gaussian, Inc. and that
 it will not use this program in any manner prohibited above.
 ---------------------------------------------------------------
  

 Cite this work as:
 Gaussian 09, Revision B.01,
 M. J. Frisch, G. W. Trucks, H. B. Schlegel, G. E. Scuseria, 
 M. A. Robb, J. R. Cheeseman, G. Scalmani, V. Barone, B. Mennucci, 
 G. A. Petersson, H. Nakatsuji, M. Caricato, X. Li, H. P. Hratchian, 
 A. F. Izmaylov, J. Bloino, G. Zheng, J. L. Sonnenberg, M. Hada, 
 M. Ehara, K. Toyota, R. Fukuda, J. Hasegawa, M. Ishida, T. Nakajima, 
 Y. Honda, O. Kitao, H. Nakai, T. Vreven, J. A. Montgomery, Jr., 
 J. E. Peralta, F. Ogliaro, M. Bearpark, J. J. Heyd, E. Brothers, 
 K. N. Kudin, V. N. Staroverov, T. Keith, R. Kobayashi, J. Normand, 
 K. Raghavachari, A. Rendell, J. C. Burant, S. S. Iyengar, J. Tomasi, 
 M. Cossi, N. Rega, J. M. Millam, M. Klene, J. E. Knox, J. B. Cross, 
 V. Bakken, C. Adamo, J. Jaramillo, R. Gomperts, R. E. Stratmann, 
 O. Yazyev, A. J. Austin, R. Cammi, C. Pomelli, J. W. Ochterski, 
 R. L. Martin, K. Morokuma, V. G. Zakrzewski, G. A. Voth, 
 P. Salvador, J. J. Dannenberg, S. Dapprich, A. D. Daniels, 
 O. Farkas, J. B. Foresman, J. V. Ortiz, J. Cioslowski, 
 and D. J. Fox, Gaussian, Inc., Wallingford CT, 2010.
 
 ******************************************
 Gaussian 09:  EM64L-G09RevB.01 12-Aug-2010
                26-May-2021 
 ******************************************
 -----------
 #P HF/6-31G
 -----------
 1/38=1/1;
 2/12=2,17=6,18=5,40=1/2;
 3/5=1,6=6,11=9,16=1,25=1,30=1/1,2,3;
 4//1;
 5/5=2,38=5/2;
 6/7=2,8=2,9=2,10=2,28=1/1;
 99/5=1,9=1/99;
 Leave Link    1 at Wed May 26 14:07:05 2021, MaxMem=          0 cpu:       0.0
 (Enter /home/emil/gauss09/g09/l101.exe)
 ---
 CCH
 ---
 Symbolic Z-matrix:
 Charge =  0 Multiplicity = 2
 C
 C                    1    RCC
 X                    1     1.       2     90. 
 H                    1    RCH      3     90.      2     180.     0
       Variables:
  RCC                   1.2073                   
  RCH                   1.0634                   
 
 NAtoms=      3 NQM=      3 NQMF=      0 NMic=      0 NMicF=      0 NTot=      3.
                    Isotopes and Nuclear Properties:
 (Nuclear quadrupole moments (NQMom) in fm**2, nuclear magnetic moments (NMagM)
  in nuclear magnetons)

  Atom         1           2           3
 IAtWgt=          12          12           1
 AtmWgt=  12.0000000  12.0000000   1.0078250
 NucSpn=           0           0           1
 AtZEff=   0.0000000   0.0000000   0.0000000
 NQMom=    0.0000000   0.0000000   0.0000000
 NMagM=    0.0000000   0.0000000   2.7928460
 Leave Link  101 at Wed May 26 14:07:05 2021, MaxMem=   33554432 cpu:       0.1
 (Enter /home/emil/gauss09/g09/l202.exe)
                          Input orientation:                          
 ---------------------------------------------------------------------
 Center     Atomic      Atomic             Coordinates (Angstroms)
 Number     Number       Type             X           Y           Z
 ---------------------------------------------------------------------
      1          6           0        0.000000    0.000000    0.000000
      2          6           0        0.000000    0.000000    1.207300
      3          1           0        0.000000    0.000000   -1.063400
 ---------------------------------------------------------------------
                    Distance matrix (angstroms):
                    1          2          3
     1  C    0.000000
     2  C    1.207300   0.000000
     3  H    1.063400   2.270700   0.000000
 Stoichiometry    C2H(2)
 Framework group  C*V[C*(HCC)]
 Deg. of freedom     2
 Full point group                 C*V     NOp   4
 Largest Abelian subgroup         C2V     NOp   4
 Largest concise Abelian subgroup C1      NOp   1
                         Standard orientation:                         
 ---------------------------------------------------------------------
 Center     Atomic      Atomic             Coordinates (Angstroms)
 Number     Number       Type             X           Y           Z
 ---------------------------------------------------------------------
      1          6           0        0.000000    0.000000   -0.475415
      2          6           0        0.000000    0.000000    0.731885
      3          1           0        0.000000    0.000000   -1.538815
 ---------------------------------------------------------------------
 Rotational constants (GHZ):      0.0000000     44.2021103     44.2021103
 Leave Link  202 at Wed May 26 14:07:05 2021, MaxMem=   33554432 cpu:       0.0
 (Enter /home/emil/gauss09/g09/l301.exe)
 Standard basis: 6-31G (6D, 7F)
 Ernie: Thresh=  0.10000D-02 Tol=  0.10000D-05 Strict=F.
 There are    12 symmetry adapted basis functions of A1  symmetry.
 There are     0 symmetry adapted basis functions of A2  symmetry.
 There are     4 symmetry adapted basis functions of B1  symmetry.
 There are     4 symmetry adapted basis functions of B2  symmetry.
 Integral buffers will be    131072 words long.
 Raffenetti 2 integral format.
 Two-electron integral symmetry is turned on.
    20 basis functions,    48 primitive gaussians,    20 cartesian basis functions
     7 alpha electrons        6 beta electrons
       nuclear repulsion energy        20.1633661596 Hartrees.
 IExCor=    0 DFT=F Ex=HF Corr=None ExCW=0 ScaHFX=  1.000000
 ScaDFX=  1.000000  1.000000  1.000000  1.000000 ScalE2=  1.000000  1.000000
 IRadAn=      0 IRanWt=     -1 IRanGd=            0 ICorTp=0
 NAtoms=    3 NActive=    3 NUniq=    3 SFac= 1.00D+00 NAtFMM=   50 NAOKFM=F Big=F
 Leave Link  301 at Wed May 26 14:07:05 2021, MaxMem=   33554432 cpu:       0.0
 (Enter /home/emil/gauss09/g09/l302.exe)
 NPDir=0 NMtPBC=     1 NCelOv=     1 NCel=       1 NClECP=     1 NCelD=      1
         NCelK=      1 NCelE2=     1 NClLst=     1 CellRange=     0.0.
 One-electron integrals computed using PRISM.
 NBasis=    20 RedAO= T  NBF=    12     0     4     4
 NBsUse=    20 1.00D-06 NBFU=    12     0     4     4
 Leave Link  302 at Wed May 26 14:07:06 2021, MaxMem=   33554432 cpu:       0.1
 (Enter /home/emil/gauss09/g09/l303.exe)
 DipDrv:  MaxL=1.
 Leave Link  303 at Wed May 26 14:07:06 2021, MaxMem=   33554432 cpu:       0.0
 (Enter /home/emil/gauss09/g09/l401.exe)
 Harris functional with IExCor=  205 diagonalized for initial guess.
 ExpMin= 1.61D-01 ExpMax= 3.05D+03 ExpMxC= 4.57D+02 IAcc=1 IRadAn=         1 AccDes= 0.00D+00
 HarFok:  IExCor=  205 AccDes= 0.00D+00 IRadAn=         1 IDoV= 1
 ScaDFX=  1.000000  1.000000  1.000000  1.000000
 FoFCou: FMM=F IPFlag=           0 FMFlag=      100000 FMFlg1=           0
         NFxFlg=           0 DoJE=T BraDBF=F KetDBF=T FulRan=T
         Omega=  0.000000  0.000000  1.000000  0.000000  0.000000 ICntrl=     500 IOpCl=  0
         NMat0=    1 NMatS0=    1 NMatT0=    0 NMatD0=    1 NMtDS0=    0 NMtDT0=    0
         I1Cent=           4 NGrid=           0.
 Petite list used in FoFCou.
 Harris En= -76.1255665134205    
 Initial guess orbital symmetries:
 Alpha Orbitals:
       Occupied  (SG) (SG) (SG) (SG) (PI) (PI) (SG)
       Virtual   (PI) (PI) (SG) (SG) (SG) (PI) (PI) (PI) (PI) (SG)
                 (SG) (SG) (SG)
 Beta  Orbitals:
       Occupied  (SG) (SG) (SG) (SG) (PI) (PI)
       Virtual   (SG) (PI) (PI) (SG) (SG) (SG) (PI) (PI) (PI) (PI)
                 (SG) (SG) (SG) (SG)
 The electronic state of the initial guess is 2-SG.
 Initial guess <Sx>= 0.0000 <Sy>= 0.0000 <Sz>= 0.5000 <S**2>= 0.7500 S= 0.5000
 Leave Link  401 at Wed May 26 14:07:06 2021, MaxMem=   33554432 cpu:       0.1
 (Enter /home/emil/gauss09/g09/l502.exe)
 UHF open shell SCF:
 Requested convergence on RMS density matrix=1.00D-08 within 128 cycles.
 Requested convergence on MAX density matrix=1.00D-06.
 Requested convergence on             energy=1.00D-06.
 No special actions if energy rises.
 Using DIIS extrapolation, IDIIS=  1040.
 Integral symmetry usage will be decided dynamically.
 Keep R1 and R2 ints in memory in canonical form, NReq=864110.
 IEnd=       19779 IEndB=       19779 NGot=    33554432 MDV=    33507418
 LenX=    33507418 LenY=    33506536
 Symmetry not used in FoFDir.
 MinBra= 0 MaxBra= 1 Meth= 1.
 IRaf=       0 NMat=   1 IRICut=       1 DoRegI=T DoRafI=F ISym2E= 0 JSym2E=0.

 Cycle   1  Pass 1  IDiag  1:
 E= -76.0262875204441    
 DIIS: error= 5.29D-02 at cycle   1 NSaved=   1.
 NSaved= 1 IEnMin= 1 EnMin= -76.0262875204441     IErMin= 1 ErrMin= 5.29D-02
 ErrMax= 5.29D-02 EMaxC= 1.00D-01 BMatC= 3.35D-01 BMatP= 3.35D-01
 IDIUse=3 WtCom= 4.71D-01 WtEn= 5.29D-01
 Coeff-Com:  0.100D+01
 Coeff-En:   0.100D+01
 Coeff:      0.100D+01
 Gap=     0.616 Goal=   None    Shift=    0.000
 Gap=     0.372 Goal=   None    Shift=    0.000
 GapD=    0.372 DampG=1.000 DampE=0.500 DampFc=0.5000 IDamp=-1.
 Damping current iteration by 5.00D-01
 RMSDP=1.95D-02 MaxDP=1.65D-01              OVMax= 1.54D-01

 Cycle   2  Pass 1  IDiag  1:
 E= -76.0700204378622     Delta-E=       -0.043732917418 Rises=F Damp=T
 DIIS: error= 2.35D-02 at cycle   2 NSaved=   2.
 NSaved= 2 IEnMin= 2 EnMin= -76.0700204378622     IErMin= 2 ErrMin= 2.35D-02
 ErrMax= 2.35D-02 EMaxC= 1.00D-01 BMatC= 5.44D-02 BMatP= 3.35D-01
 IDIUse=3 WtCom= 7.65D-01 WtEn= 2.35D-01
 Coeff-Com: -0.372D+00 0.137D+01
 Coeff-En:   0.000D+00 0.100D+01
 Coeff:     -0.284D+00 0.128D+01
 Gap=     0.614 Goal=   None    Shift=    0.000
 Gap=     0.441 Goal=   None    Shift=    0.000
 RMSDP=9.74D-03 MaxDP=9.15D-02 DE=-4.37D-02 OVMax= 6.64D-02

 Cycle   3  Pass 1  IDiag  1:
 E= -76.1112806445763     Delta-E=       -0.041260206714 Rises=F Damp=F
 DIIS: error= 1.28D-02 at cycle   3 NSaved=   3.
 NSaved= 3 IEnMin= 3 EnMin= -76.1112806445763     IErMin= 3 ErrMin= 1.28D-02
 ErrMax= 1.28D-02 EMaxC= 1.00D-01 BMatC= 4.62D-03 BMatP= 5.44D-02
 IDIUse=3 WtCom= 8.72D-01 WtEn= 1.28D-01
 Coeff-Com: -0.120D+00 0.248D+00 0.872D+00
 Coeff-En:   0.000D+00 0.000D+00 0.100D+01
 Coeff:     -0.105D+00 0.216D+00 0.888D+00
 Gap=     0.625 Goal=   None    Shift=    0.000
 Gap=     0.436 Goal=   None    Shift=    0.000
 RMSDP=2.32D-03 MaxDP=1.93D-02 DE=-4.13D-02 OVMax= 2.97D-02

 Cycle   4  Pass 1  IDiag  1:
 E= -76.1140508302461     Delta-E=       -0.002770185670 Rises=F Damp=F
 DIIS: error= 7.90D-03 at cycle   4 NSaved=   4.
 NSaved= 4 IEnMin= 4 EnMin= -76.1140508302461     IErMin= 4 ErrMin= 7.90D-03
 ErrMax= 7.90D-03 EMaxC= 1.00D-01 BMatC= 1.72D-03 BMatP= 4.62D-03
 IDIUse=3 WtCom= 9.21D-01 WtEn= 7.90D-02
 Coeff-Com:  0.302D-01-0.747D-01 0.793D-01 0.965D+00
 Coeff-En:   0.000D+00 0.000D+00 0.000D+00 0.100D+01
 Coeff:      0.278D-01-0.688D-01 0.731D-01 0.968D+00
 Gap=     0.626 Goal=   None    Shift=    0.000
 Gap=     0.442 Goal=   None    Shift=    0.000
 RMSDP=1.56D-03 MaxDP=1.04D-02 DE=-2.77D-03 OVMax= 2.04D-02

 Cycle   5  Pass 1  IDiag  1:
 E= -76.1160790525229     Delta-E=       -0.002028222277 Rises=F Damp=F
 DIIS: error= 6.23D-03 at cycle   5 NSaved=   5.
 NSaved= 5 IEnMin= 5 EnMin= -76.1160790525229     IErMin= 5 ErrMin= 6.23D-03
 ErrMax= 6.23D-03 EMaxC= 1.00D-01 BMatC= 1.43D-03 BMatP= 1.72D-03
 IDIUse=3 WtCom= 9.38D-01 WtEn= 6.23D-02
 Coeff-Com: -0.302D-01 0.870D-01-0.154D+00-0.118D+01 0.228D+01
 Coeff-En:   0.000D+00 0.000D+00 0.000D+00 0.000D+00 0.100D+01
 Coeff:     -0.283D-01 0.816D-01-0.145D+00-0.111D+01 0.220D+01
 Gap=     0.630 Goal=   None    Shift=    0.000
 Gap=     0.449 Goal=   None    Shift=    0.000
 RMSDP=3.36D-03 MaxDP=2.07D-02 DE=-2.03D-03 OVMax= 3.97D-02

 Cycle   6  Pass 1  IDiag  1:
 E= -76.1200038944932     Delta-E=       -0.003924841970 Rises=F Damp=F
 DIIS: error= 5.48D-03 at cycle   6 NSaved=   6.
 NSaved= 6 IEnMin= 6 EnMin= -76.1200038944932     IErMin= 6 ErrMin= 5.48D-03
 ErrMax= 5.48D-03 EMaxC= 1.00D-01 BMatC= 1.17D-03 BMatP= 1.43D-03
 IDIUse=3 WtCom= 9.45D-01 WtEn= 5.48D-02
 Large coefficients: NSaved=  6 BigCof=   14.21 CofMax=   10.00 Det=-3.69D-06
 Inversion failed.  Reducing to  5 matrices.
 Large coefficients: NSaved=  5 BigCof=   10.88 CofMax=   10.00 Det=-5.85D-06
 Inversion failed.  Reducing to  4 matrices.
 Coeff-Com:  0.769D+00 0.186D+01-0.956D+01 0.793D+01
 Coeff-En:   0.000D+00 0.000D+00 0.000D+00 0.100D+01
 Coeff:      0.727D+00 0.176D+01-0.904D+01 0.755D+01
 Gap=     0.660 Goal=   None    Shift=    0.000
 Gap=     0.490 Goal=   None    Shift=    0.000
 RMSDP=1.69D-02 MaxDP=1.03D-01 DE=-3.92D-03 OVMax= 1.84D-01

 Cycle   7  Pass 1  IDiag  1:
 E= -76.1261214745633     Delta-E=       -0.006117580070 Rises=F Damp=F
 DIIS: error= 4.00D-03 at cycle   7 NSaved=   5.
 NSaved= 5 IEnMin= 5 EnMin= -76.1261214745633     IErMin= 5 ErrMin= 4.00D-03
 ErrMax= 4.00D-03 EMaxC= 1.00D-01 BMatC= 6.70D-04 BMatP= 1.17D-03
 IDIUse=3 WtCom= 9.60D-01 WtEn= 4.00D-02
 Coeff-Com:  0.624D-01 0.217D+00 0.715D-01 0.457D-01 0.604D+00
 Coeff-En:   0.000D+00 0.000D+00 0.000D+00 0.000D+00 0.100D+01
 Coeff:      0.599D-01 0.208D+00 0.686D-01 0.439D-01 0.620D+00
 Gap=     0.635 Goal=   None    Shift=    0.000
 Gap=     0.464 Goal=   None    Shift=    0.000
 RMSDP=7.95D-03 MaxDP=4.97D-02 DE=-6.12D-03 OVMax= 8.40D-02

 Cycle   8  Pass 1  IDiag  1:
 E= -76.1270084285806     Delta-E=       -0.000886954017 Rises=F Damp=F
 DIIS: error= 2.15D-03 at cycle   8 NSaved=   6.
 NSaved= 6 IEnMin= 6 EnMin= -76.1270084285806     IErMin= 6 ErrMin= 2.15D-03
 ErrMax= 2.15D-03 EMaxC= 1.00D-01 BMatC= 1.74D-04 BMatP= 6.70D-04
 IDIUse=3 WtCom= 9.78D-01 WtEn= 2.15D-02
 Coeff-Com: -0.845D-01-0.229D+00 0.117D+01-0.107D+01 0.302D+00 0.909D+00
 Coeff-En:   0.000D+00 0.000D+00 0.000D+00 0.000D+00 0.000D+00 0.100D+01
 Coeff:     -0.827D-01-0.224D+00 0.115D+01-0.105D+01 0.296D+00 0.911D+00
 Gap=     0.655 Goal=   None    Shift=    0.000
 Gap=     0.479 Goal=   None    Shift=    0.000
 RMSDP=2.00D-03 MaxDP=1.22D-02 DE=-8.87D-04 OVMax= 2.22D-02

 Cycle   9  Pass 1  IDiag  1:
 E= -76.1275753332875     Delta-E=       -0.000566904707 Rises=F Damp=F
 DIIS: error= 8.44D-04 at cycle   9 NSaved=   7.
 NSaved= 7 IEnMin= 7 EnMin= -76.1275753332875     IErMin= 7 ErrMin= 8.44D-04
 ErrMax= 8.44D-04 EMaxC= 1.00D-01 BMatC= 2.75D-05 BMatP= 1.74D-04
 IDIUse=3 WtCom= 9.92D-01 WtEn= 8.44D-03
 Coeff-Com: -0.329D-02 0.223D-01-0.838D-01 0.309D-02 0.666D-02-0.378D+00
 Coeff-Com:  0.143D+01
 Coeff-En:   0.000D+00 0.000D+00 0.000D+00 0.000D+00 0.000D+00 0.000D+00
 Coeff-En:   0.100D+01
 Coeff:     -0.326D-02 0.221D-01-0.831D-01 0.307D-02 0.660D-02-0.375D+00
 Coeff:      0.143D+01
 Gap=     0.666 Goal=   None    Shift=    0.000
 Gap=     0.487 Goal=   None    Shift=    0.000
 RMSDP=1.63D-03 MaxDP=9.83D-03 DE=-5.67D-04 OVMax= 1.78D-02

 Cycle  10  Pass 1  IDiag  1:
 E= -76.1276636553622     Delta-E=       -0.000088322075 Rises=F Damp=F
 DIIS: error= 2.94D-04 at cycle  10 NSaved=   8.
 NSaved= 8 IEnMin= 8 EnMin= -76.1276636553622     IErMin= 8 ErrMin= 2.94D-04
 ErrMax= 2.94D-04 EMaxC= 1.00D-01 BMatC= 3.51D-06 BMatP= 2.75D-05
 IDIUse=3 WtCom= 9.97D-01 WtEn= 2.94D-03
 Coeff-Com:  0.969D-02 0.193D-01-0.117D+00 0.151D+00-0.786D-01 0.244D-01
 Coeff-Com: -0.324D+00 0.131D+01
 Coeff-En:   0.000D+00 0.000D+00 0.000D+00 0.000D+00 0.000D+00 0.000D+00
 Coeff-En:   0.000D+00 0.100D+01
 Coeff:      0.966D-02 0.192D-01-0.117D+00 0.151D+00-0.783D-01 0.243D-01
 Coeff:     -0.323D+00 0.131D+01
 Gap=     0.663 Goal=   None    Shift=    0.000
 Gap=     0.485 Goal=   None    Shift=    0.000
 RMSDP=4.43D-04 MaxDP=2.74D-03 DE=-8.83D-05 OVMax= 4.74D-03

 Cycle  11  Pass 1  IDiag  1:
 E= -76.1276743432073     Delta-E=       -0.000010687845 Rises=F Damp=F
 DIIS: error= 3.34D-05 at cycle  11 NSaved=   9.
 NSaved= 9 IEnMin= 9 EnMin= -76.1276743432073     IErMin= 9 ErrMin= 3.34D-05
 ErrMax= 3.34D-05 EMaxC= 1.00D-01 BMatC= 5.07D-08 BMatP= 3.51D-06
 IDIUse=1 WtCom= 1.00D+00 WtEn= 0.00D+00
 Coeff-Com: -0.288D-02-0.931D-02 0.459D-01-0.589D-01 0.328D-01-0.889D-02
 Coeff-Com:  0.505D-01-0.609D+00 0.156D+01
 Coeff:     -0.288D-02-0.931D-02 0.459D-01-0.589D-01 0.328D-01-0.889D-02
 Coeff:      0.505D-01-0.609D+00 0.156D+01
 Gap=     0.663 Goal=   None    Shift=    0.000
 Gap=     0.486 Goal=   None    Shift=    0.000
 RMSDP=6.97D-05 MaxDP=5.07D-04 DE=-1.07D-05 OVMax= 6.89D-04

 Cycle  12  Pass 1  IDiag  1:
 E= -76.1276744221480     Delta-E=       -0.000000078941 Rises=F Damp=F
 DIIS: error= 1.93D-05 at cycle  12 NSaved=  10.
 NSaved=10 IEnMin=10 EnMin= -76.1276744221480     IErMin=10 ErrMin= 1.93D-05
 ErrMax= 1.93D-05 EMaxC= 1.00D-01 BMatC= 1.30D-08 BMatP= 5.07D-08
 IDIUse=1 WtCom= 1.00D+00 WtEn= 0.00D+00
 Coeff-Com:  0.574D-03 0.347D-02-0.156D-01 0.202D-01-0.114D-01 0.565D-02
 Coeff-Com:  0.527D-02 0.184D+00-0.697D+00 0.150D+01
 Coeff:      0.574D-03 0.347D-02-0.156D-01 0.202D-01-0.114D-01 0.565D-02
 Coeff:      0.527D-02 0.184D+00-0.697D+00 0.150D+01
 Gap=     0.663 Goal=   None    Shift=    0.000
 Gap=     0.485 Goal=   None    Shift=    0.000
 RMSDP=3.47D-05 MaxDP=2.09D-04 DE=-7.89D-08 OVMax= 3.78D-04

 Cycle  13  Pass 1  IDiag  1:
 E= -76.1276744606658     Delta-E=       -0.000000038518 Rises=F Damp=F
 DIIS: error= 6.73D-06 at cycle  13 NSaved=  11.
 NSaved=11 IEnMin=11 EnMin= -76.1276744606658     IErMin=11 ErrMin= 6.73D-06
 ErrMax= 6.73D-06 EMaxC= 1.00D-01 BMatC= 1.60D-09 BMatP= 1.30D-08
 IDIUse=1 WtCom= 1.00D+00 WtEn= 0.00D+00
 Coeff-Com:  0.362D-04-0.113D-03 0.238D-03-0.160D-03-0.186D-03-0.781D-03
 Coeff-Com: -0.398D-02 0.118D-01-0.982D-03-0.512D-01 0.105D+01
 Coeff:      0.362D-04-0.113D-03 0.238D-03-0.160D-03-0.186D-03-0.781D-03
 Coeff:     -0.398D-02 0.118D-01-0.982D-03-0.512D-01 0.105D+01
 Gap=     0.663 Goal=   None    Shift=    0.000
 Gap=     0.486 Goal=   None    Shift=    0.000
 RMSDP=9.10D-06 MaxDP=5.50D-05 DE=-3.85D-08 OVMax= 9.90D-05

 Cycle  14  Pass 1  IDiag  1:
 E= -76.1276744660528     Delta-E=       -0.000000005387 Rises=F Damp=F
 DIIS: error= 1.34D-07 at cycle  14 NSaved=  12.
 NSaved=12 IEnMin=12 EnMin= -76.1276744660528     IErMin=12 ErrMin= 1.34D-07
 ErrMax= 1.34D-07 EMaxC= 1.00D-01 BMatC= 9.77D-13 BMatP= 1.60D-09
 IDIUse=1 WtCom= 1.00D+00 WtEn= 0.00D+00
 Coeff-Com: -0.112D-04-0.122D-04 0.119D-03-0.128D-03 0.138D-03 0.203D-03
 Coeff-Com:  0.935D-03-0.434D-02 0.592D-02-0.101D-01-0.317D+00 0.132D+01
 Coeff:     -0.112D-04-0.122D-04 0.119D-03-0.128D-03 0.138D-03 0.203D-03
 Coeff:      0.935D-03-0.434D-02 0.592D-02-0.101D-01-0.317D+00 0.132D+01
 Gap=     0.663 Goal=   None    Shift=    0.000
 Gap=     0.486 Goal=   None    Shift=    0.000
 RMSDP=3.83D-07 MaxDP=2.89D-06 DE=-5.39D-09 OVMax= 3.96D-06

 Cycle  15  Pass 1  IDiag  1:
 E= -76.1276744660513     Delta-E=        0.000000000002 Rises=F Damp=F
 DIIS: error= 1.62D-07 at cycle  15 NSaved=  13.
 NSaved=13 IEnMin=12 EnMin= -76.1276744660528     IErMin=12 ErrMin= 1.34D-07
 ErrMax= 1.62D-07 EMaxC= 1.00D-01 BMatC= 9.64D-13 BMatP= 9.77D-13
 IDIUse=1 WtCom= 1.00D+00 WtEn= 0.00D+00
 Coeff-Com:  0.229D-05 0.147D-04-0.626D-04 0.636D-04-0.446D-04-0.163D-04
 Coeff-Com: -0.358D-03 0.159D-02-0.288D-02 0.691D-02 0.771D-01-0.478D+00
 Coeff-Com:  0.140D+01
 Coeff:      0.229D-05 0.147D-04-0.626D-04 0.636D-04-0.446D-04-0.163D-04
 Coeff:     -0.358D-03 0.159D-02-0.288D-02 0.691D-02 0.771D-01-0.478D+00
 Coeff:      0.140D+01
 Gap=     0.663 Goal=   None    Shift=    0.000
 Gap=     0.486 Goal=   None    Shift=    0.000
 RMSDP=2.70D-07 MaxDP=1.67D-06 DE= 1.53D-12 OVMax= 2.95D-06

 Cycle  16  Pass 1  IDiag  1:
 E= -76.1276744660543     Delta-E=       -0.000000000003 Rises=F Damp=F
 DIIS: error= 3.47D-08 at cycle  16 NSaved=  14.
 NSaved=14 IEnMin=14 EnMin= -76.1276744660543     IErMin=14 ErrMin= 3.47D-08
 ErrMax= 3.47D-08 EMaxC= 1.00D-01 BMatC= 5.15D-14 BMatP= 9.64D-13
 IDIUse=1 WtCom= 1.00D+00 WtEn= 0.00D+00
 Coeff-Com:  0.338D-06-0.114D-05 0.522D-06 0.198D-05-0.918D-06 0.221D-05
 Coeff-Com:  0.101D-03-0.281D-03 0.329D-03-0.103D-02-0.136D-01 0.105D+00
 Coeff-Com: -0.423D+00 0.133D+01
 Coeff:      0.338D-06-0.114D-05 0.522D-06 0.198D-05-0.918D-06 0.221D-05
 Coeff:      0.101D-03-0.281D-03 0.329D-03-0.103D-02-0.136D-01 0.105D+00
 Coeff:     -0.423D+00 0.133D+01
 Gap=     0.663 Goal=   None    Shift=    0.000
 Gap=     0.486 Goal=   None    Shift=    0.000
 RMSDP=5.92D-08 MaxDP=3.60D-07 DE=-3.07D-12 OVMax= 6.37D-07

 Cycle  17  Pass 1  IDiag  1:
 E= -76.1276744660545     Delta-E=        0.000000000000 Rises=F Damp=F
 DIIS: error= 6.96D-09 at cycle  17 NSaved=  15.
 NSaved=15 IEnMin=15 EnMin= -76.1276744660545     IErMin=15 ErrMin= 6.96D-09
 ErrMax= 6.96D-09 EMaxC= 1.00D-01 BMatC= 1.58D-15 BMatP= 5.15D-14
 IDIUse=1 WtCom= 1.00D+00 WtEn= 0.00D+00
 Coeff-Com:  0.169D-07 0.417D-06-0.123D-05 0.138D-05-0.511D-06-0.279D-07
 Coeff-Com: -0.181D-04 0.690D-04-0.128D-03 0.320D-03 0.150D-02-0.160D-01
 Coeff-Com:  0.652D-01-0.298D+00 0.125D+01
 Coeff:      0.169D-07 0.417D-06-0.123D-05 0.138D-05-0.511D-06-0.279D-07
 Coeff:     -0.181D-04 0.690D-04-0.128D-03 0.320D-03 0.150D-02-0.160D-01
 Coeff:      0.652D-01-0.298D+00 0.125D+01
 Gap=     0.663 Goal=   None    Shift=    0.000
 Gap=     0.486 Goal=   None    Shift=    0.000
 RMSDP=8.69D-09 MaxDP=5.38D-08 DE=-1.42D-13 OVMax= 9.29D-08

 SCF Done:  E(UHF) =  -76.1276744661     A.U. after   17 cycles
             Convg  =    0.8686D-08             -V/T =  1.9987
 <Sx>= 0.0000 <Sy>= 0.0000 <Sz>= 0.5000 <S**2>= 1.2284 S= 0.7159
 <L.S>= 0.000000000000E+00
 KE= 7.622652444389D+01 PE=-2.178573880919D+02 EE= 4.533982302240D+01
 Annihilation of the first spin contaminant:
 S**2 before annihilation     1.2284,   after     0.9048
 Leave Link  502 at Wed May 26 14:07:06 2021, MaxMem=   33554432 cpu:       0.1
 (Enter /home/emil/gauss09/g09/l601.exe)
 Copying SCF densities to generalized density rwf, IOpCl= 1 IROHF=0.

 **********************************************************************

            Population analysis using the SCF density.

 **********************************************************************

 Orbital symmetries:
 Alpha Orbitals:
       Occupied  (SG) (SG) (SG) (SG) (SG) (PI) (PI)
       Virtual   (PI) (PI) (SG) (SG) (SG) (PI) (PI) (SG) (PI) (PI)
                 (SG) (SG) (SG)
 Beta  Orbitals:
       Occupied  (SG) (SG) (SG) (SG) (PI) (PI)
       Virtual   (SG) (PI) (PI) (SG) (SG) (SG) (PI) (PI) (PI) (PI)
                 (SG) (SG) (SG) (SG)
 The electronic state is 2-SG.
 Alpha  occ. eigenvalues --  -11.30483 -11.23731  -1.06299  -0.72733  -0.60458
 Alpha  occ. eigenvalues --   -0.45318  -0.45318
 Alpha virt. eigenvalues --    0.21002   0.21002   0.27814   0.49993   0.66446
 Alpha virt. eigenvalues --    0.72776   0.72776   0.84562   0.90340   0.90340
 Alpha virt. eigenvalues --    1.02971   1.45329   1.53508
  Beta  occ. eigenvalues --  -11.25947 -11.24636  -1.02973  -0.72352  -0.42437
  Beta  occ. eigenvalues --   -0.42437
  Beta virt. eigenvalues --    0.06117   0.25370   0.25370   0.26840   0.56251
  Beta virt. eigenvalues --    0.66460   0.74118   0.74118   0.91838   0.91838
  Beta virt. eigenvalues --    0.98563   1.00825   1.47089   1.56028
          Condensed to atoms (all electrons):
              1          2          3
     1  C    5.005813   0.864483   0.339577
     2  C    0.864483   5.231444  -0.012136
     3  H    0.339577  -0.012136   0.378896
 Mulliken atomic charges:
              1
     1  C   -0.209873
     2  C   -0.083790
     3  H    0.293663
 Sum of Mulliken atomic charges =   0.00000
 Mulliken charges with hydrogens summed into heavy atoms:
              1
     1  C    0.083790
     2  C   -0.083790
 Sum of Mulliken charges with hydrogens summed into heavy atoms =   0.00000
          Atomic-Atomic Spin Densities.
              1          2          3
     1  C   -1.393125   0.001942   0.017464
     2  C    0.001942   2.264596  -0.006012
     3  H    0.017464  -0.006012   0.101739
 Mulliken atomic spin densities:
              1
     1  C   -1.373719
     2  C    2.260527
     3  H    0.113192
 Sum of Mulliken atomic spin densities =   1.00000
 Electronic spatial extent (au):  <R**2>=             49.6753
 Charge=              0.0000 electrons
 Dipole moment (field-independent basis, Debye):
    X=              0.0000    Y=              0.0000    Z=             -0.6791  Tot=              0.6791
 Quadrupole moment (field-independent basis, Debye-Ang):
   XX=            -12.4828   YY=            -12.4828   ZZ=             -8.5247
   XY=              0.0000   XZ=              0.0000   YZ=              0.0000
 Traceless Quadrupole moment (field-independent basis, Debye-Ang):
   XX=             -1.3194   YY=             -1.3194   ZZ=              2.6388
   XY=              0.0000   XZ=              0.0000   YZ=              0.0000
 Octapole moment (field-independent basis, Debye-Ang**2):
  XXX=              0.0000  YYY=              0.0000  ZZZ=             -4.3910  XYY=              0.0000
  XXY=              0.0000  XXZ=             -0.3085  XZZ=              0.0000  YZZ=              0.0000
  YYZ=             -0.3085  XYZ=              0.0000
 Hexadecapole moment (field-independent basis, Debye-Ang**3):
 XXXX=            -13.1870 YYYY=            -13.1870 ZZZZ=            -36.0183 XXXY=              0.0000
 XXXZ=              0.0000 YYYX=              0.0000 YYYZ=              0.0000 ZZZX=              0.0000
 ZZZY=              0.0000 XXYY=             -4.3957 XXZZ=             -9.7817 YYZZ=             -9.7817
 XXYZ=              0.0000 YYXZ=              0.0000 ZZXY=              0.0000
 N-N= 2.016336615960D+01 E-N=-3.231560995613D+02  KE= 1.135573205720D+02
 Symmetry A1   KE= 1.068750812055D+02
 Symmetry A2   KE= 0.000000000000D+00
 Symmetry B1   KE= 3.341119683278D+00
 Symmetry B2   KE= 3.341119683278D+00
                          Isotropic Fermi Contact Couplings
        Atom                 a.u.       MegaHertz       Gauss      10(-4) cm-1
     1  C(13)             -0.10348    -116.32836     -41.50885     -38.80296
     2  C(13)              1.14304    1284.99894     458.51956     428.62951
     3  H(1)               0.04421     197.63362      70.52059      65.92348
 --------------------------------------------------------
       Center         ----  Spin Dipole Couplings  ----
                      3XX-RR        3YY-RR        3ZZ-RR
 --------------------------------------------------------
     1   Atom       -0.391889     -0.391889      0.783778
     2   Atom       -0.028236     -0.028236      0.056473
     3   Atom        0.029738      0.029738     -0.059477
 --------------------------------------------------------
                        XY            XZ            YZ
 --------------------------------------------------------
     1   Atom        0.000000      0.000000      0.000000
     2   Atom        0.000000      0.000000      0.000000
     3   Atom        0.000000      0.000000      0.000000
 --------------------------------------------------------


 ---------------------------------------------------------------------------------
              Anisotropic Spin Dipole Couplings in Principal Axis System
 ---------------------------------------------------------------------------------

       Atom             a.u.   MegaHertz   Gauss  10(-4) cm-1        Axes

              Baa    -0.3919   -52.588   -18.765   -17.541  1.0000  0.0000  0.0000
     1 C(13)  Bbb    -0.3919   -52.588   -18.765   -17.541  0.0000  1.0000  0.0000
              Bcc     0.7838   105.175    37.529    35.083  0.0000  0.0000  1.0000
 
              Baa    -0.0282    -3.789    -1.352    -1.264  1.0000  0.0000  0.0000
     2 C(13)  Bbb    -0.0282    -3.789    -1.352    -1.264  0.0000  1.0000  0.0000
              Bcc     0.0565     7.578     2.704     2.528  0.0000  0.0000  1.0000
 
              Baa    -0.0595   -31.734   -11.323   -10.585  0.0000  0.0000  1.0000
     3 H(1)   Bbb     0.0297    15.867     5.662     5.293  1.0000  0.0000  0.0000
              Bcc     0.0297    15.867     5.662     5.293  0.0000  1.0000  0.0000
 

 ---------------------------------------------------------------------------------

 No NMR shielding tensors so no spin-rotation constants.
 Leave Link  601 at Wed May 26 14:07:06 2021, MaxMem=   33554432 cpu:       0.2
 (Enter /home/emil/gauss09/g09/l9999.exe)
 1\1\GINC-KONG-SRV\SP\UHF\6-31G\C2H1(2)\EMIL\26-May-2021\0\\#P HF/6-31G
 \\CCH\\0,2\C\C,1,1.2073\X,1,1.,2,90.\H,1,1.0634,3,90.,2,180.,0\\Versio
 n=EM64L-G09RevB.01\State=2-SG\HF=-76.1276745\S2=1.228444\S2-1=0.\S2A=0
 .904812\RMSD=8.686e-09\Dipole=0.,0.,-0.2671641\Quadrupole=-0.9809288,-
 0.9809288,1.9618575,0.,0.,0.\PG=C*V [C*(H1C1C1)]\\@


 Discoveries are often made by not following instructions,
 by going off the main road, by trying the untried.
 -- Frank Tyger
 Job cpu time:  0 days  0 hours  0 minutes  0.7 seconds.
 File lengths (MBytes):  RWF=      5 Int=      0 D2E=      0 Chk=      1 Scr=      1
 Normal termination of Gaussian 09 at Wed May 26 14:07:06 2021.
