 Entering Gaussian System, Link 0=g09
 Input=CCl4.com
 Output=CCl4.log
 Initial command:
 /home/emil/gauss09/g09/l1.exe /home/emil/scratch/g09/Gau-9905.inp -scrdir=/home/emil/scratch/g09/
 Entering Link 1 = /home/emil/gauss09/g09/l1.exe PID=      9907.
  
 Copyright (c) 1988,1990,1992,1993,1995,1998,2003,2009,2010,
            Gaussian, Inc.  All Rights Reserved.
  
 This is part of the Gaussian(R) 09 program.  It is based on
 the Gaussian(R) 03 system (copyright 2003, Gaussian, Inc.),
 the Gaussian(R) 98 system (copyright 1998, Gaussian, Inc.),
 the Gaussian(R) 94 system (copyright 1995, Gaussian, Inc.),
 the Gaussian 92(TM) system (copyright 1992, Gaussian, Inc.),
 the Gaussian 90(TM) system (copyright 1990, Gaussian, Inc.),
 the Gaussian 88(TM) system (copyright 1988, Gaussian, Inc.),
 the Gaussian 86(TM) system (copyright 1986, Carnegie Mellon
 University), and the Gaussian 82(TM) system (copyright 1983,
 Carnegie Mellon University). Gaussian is a federally registered
 trademark of Gaussian, Inc.
  
 This software contains proprietary and confidential information,
 including trade secrets, belonging to Gaussian, Inc.
  
 This software is provided under written license and may be
 used, copied, transmitted, or stored only in accord with that
 written license.
  
 The following legend is applicable only to US Government
 contracts under FAR:
  
                    RESTRICTED RIGHTS LEGEND
  
 Use, reproduction and disclosure by the US Government is
 subject to restrictions as set forth in subparagraphs (a)
 and (c) of the Commercial Computer Software - Restricted
 Rights clause in FAR 52.227-19.
  
 Gaussian, Inc.
 340 Quinnipiac St., Bldg. 40, Wallingford CT 06492
  
  
 ---------------------------------------------------------------
 Warning -- This program may not be used in any manner that
 competes with the business of Gaussian, Inc. or will provide
 assistance to any competitor of Gaussian, Inc.  The licensee
 of this program is prohibited from giving any competitor of
 Gaussian, Inc. access to this program.  By using this program,
 the user acknowledges that Gaussian, Inc. is engaged in the
 business of creating and licensing software in the field of
 computational chemistry and represents and warrants to the
 licensee that it is not a competitor of Gaussian, Inc. and that
 it will not use this program in any manner prohibited above.
 ---------------------------------------------------------------
  

 Cite this work as:
 Gaussian 09, Revision B.01,
 M. J. Frisch, G. W. Trucks, H. B. Schlegel, G. E. Scuseria, 
 M. A. Robb, J. R. Cheeseman, G. Scalmani, V. Barone, B. Mennucci, 
 G. A. Petersson, H. Nakatsuji, M. Caricato, X. Li, H. P. Hratchian, 
 A. F. Izmaylov, J. Bloino, G. Zheng, J. L. Sonnenberg, M. Hada, 
 M. Ehara, K. Toyota, R. Fukuda, J. Hasegawa, M. Ishida, T. Nakajima, 
 Y. Honda, O. Kitao, H. Nakai, T. Vreven, J. A. Montgomery, Jr., 
 J. E. Peralta, F. Ogliaro, M. Bearpark, J. J. Heyd, E. Brothers, 
 K. N. Kudin, V. N. Staroverov, T. Keith, R. Kobayashi, J. Normand, 
 K. Raghavachari, A. Rendell, J. C. Burant, S. S. Iyengar, J. Tomasi, 
 M. Cossi, N. Rega, J. M. Millam, M. Klene, J. E. Knox, J. B. Cross, 
 V. Bakken, C. Adamo, J. Jaramillo, R. Gomperts, R. E. Stratmann, 
 O. Yazyev, A. J. Austin, R. Cammi, C. Pomelli, J. W. Ochterski, 
 R. L. Martin, K. Morokuma, V. G. Zakrzewski, G. A. Voth, 
 P. Salvador, J. J. Dannenberg, S. Dapprich, A. D. Daniels, 
 O. Farkas, J. B. Foresman, J. V. Ortiz, J. Cioslowski, 
 and D. J. Fox, Gaussian, Inc., Wallingford CT, 2010.
 
 ******************************************
 Gaussian 09:  EM64L-G09RevB.01 12-Aug-2010
                26-May-2021 
 ******************************************
 -----------
 #P HF/6-31G
 -----------
 1/38=1/1;
 2/12=2,17=6,18=5,40=1/2;
 3/5=1,6=6,11=9,16=1,25=1,30=1/1,2,3;
 4//1;
 5/5=2,38=5/2;
 6/7=2,8=2,9=2,10=2,28=1/1;
 99/5=1,9=1/99;
 Leave Link    1 at Wed May 26 14:08:54 2021, MaxMem=          0 cpu:       0.0
 (Enter /home/emil/gauss09/g09/l101.exe)
 ----
 CCl4
 ----
 Symbolic Z-matrix:
 Charge =  0 Multiplicity = 1
 C
 Cl                   1    R
 Cl                   1    R        2    A
 Cl                   1    R        2    A        3     120.     0
 Cl                   1    R        2    A        3    -120.     0
       Variables:
  R                     1.7673                   
  A                   109.47122                  
 
     3 tetrahedral angles replaced.
 NAtoms=      5 NQM=      5 NQMF=      0 NMic=      0 NMicF=      0 NTot=      5.
    3 tetrahedral angles replaced.
                    Isotopes and Nuclear Properties:
 (Nuclear quadrupole moments (NQMom) in fm**2, nuclear magnetic moments (NMagM)
  in nuclear magnetons)

  Atom         1           2           3           4           5
 IAtWgt=          12          35          35          35          35
 AtmWgt=  12.0000000  34.9688527  34.9688527  34.9688527  34.9688527
 NucSpn=           0           3           3           3           3
 AtZEff=   0.0000000   0.0000000   0.0000000   0.0000000   0.0000000
 NQMom=    0.0000000  -8.1650000  -8.1650000  -8.1650000  -8.1650000
 NMagM=    0.0000000   0.8218740   0.8218740   0.8218740   0.8218740
 Leave Link  101 at Wed May 26 14:08:54 2021, MaxMem=   33554432 cpu:       0.1
 (Enter /home/emil/gauss09/g09/l202.exe)
                          Input orientation:                          
 ---------------------------------------------------------------------
 Center     Atomic      Atomic             Coordinates (Angstroms)
 Number     Number       Type             X           Y           Z
 ---------------------------------------------------------------------
      1          6           0        0.000000    0.000000    0.000000
      2         17           0        0.000000    0.000000    1.767300
      3         17           0        1.666226    0.000000   -0.589100
      4         17           0       -0.833113   -1.442994   -0.589100
      5         17           0       -0.833113    1.442994   -0.589100
 ---------------------------------------------------------------------
                    Distance matrix (angstroms):
                    1          2          3          4          5
     1  C    0.000000
     2  Cl   1.767300   0.000000
     3  Cl   1.767300   2.885989   0.000000
     4  Cl   1.767300   2.885989   2.885989   0.000000
     5  Cl   1.767300   2.885989   2.885989   2.885989   0.000000
 Stoichiometry    CCl4
 Framework group  TD[O(C),4C3(Cl)]
 Deg. of freedom     1
 Full point group                 TD      NOp  24
 Largest Abelian subgroup         D2      NOp   4
 Largest concise Abelian subgroup D2      NOp   4
                         Standard orientation:                         
 ---------------------------------------------------------------------
 Center     Atomic      Atomic             Coordinates (Angstroms)
 Number     Number       Type             X           Y           Z
 ---------------------------------------------------------------------
      1          6           0        0.000000    0.000000    0.000000
      2         17           0        1.020351    1.020351    1.020351
      3         17           0       -1.020351   -1.020351    1.020351
      4         17           0       -1.020351    1.020351   -1.020351
      5         17           0        1.020351   -1.020351   -1.020351
 ---------------------------------------------------------------------
 Rotational constants (GHZ):      1.7351880      1.7351880      1.7351880
 Leave Link  202 at Wed May 26 14:08:54 2021, MaxMem=   33554432 cpu:       0.0
 (Enter /home/emil/gauss09/g09/l301.exe)
 Standard basis: 6-31G (6D, 7F)
 Ernie: Thresh=  0.10000D-02 Tol=  0.10000D-05 Strict=F.
 There are    16 symmetry adapted basis functions of A   symmetry.
 There are    15 symmetry adapted basis functions of B1  symmetry.
 There are    15 symmetry adapted basis functions of B2  symmetry.
 There are    15 symmetry adapted basis functions of B3  symmetry.
 Integral buffers will be    131072 words long.
 Raffenetti 1 integral format.
 Two-electron integral symmetry is turned on.
    61 basis functions,   206 primitive gaussians,    61 cartesian basis functions
    37 alpha electrons       37 beta electrons
       nuclear repulsion energy       440.1138079385 Hartrees.
 IExCor=    0 DFT=F Ex=HF Corr=None ExCW=0 ScaHFX=  1.000000
 ScaDFX=  1.000000  1.000000  1.000000  1.000000 ScalE2=  1.000000  1.000000
 IRadAn=      0 IRanWt=     -1 IRanGd=            0 ICorTp=0
 NAtoms=    5 NActive=    5 NUniq=    2 SFac= 4.00D+00 NAtFMM=   50 NAOKFM=F Big=F
 Leave Link  301 at Wed May 26 14:08:54 2021, MaxMem=   33554432 cpu:       0.1
 (Enter /home/emil/gauss09/g09/l302.exe)
 NPDir=0 NMtPBC=     1 NCelOv=     1 NCel=       1 NClECP=     1 NCelD=      1
         NCelK=      1 NCelE2=     1 NClLst=     1 CellRange=     0.0.
 One-electron integrals computed using PRISM.
 One-electron integral symmetry used in STVInt
 NBasis=    61 RedAO= T  NBF=    16    15    15    15
 NBsUse=    61 1.00D-06 NBFU=    16    15    15    15
 Leave Link  302 at Wed May 26 14:08:55 2021, MaxMem=   33554432 cpu:       0.3
 (Enter /home/emil/gauss09/g09/l303.exe)
 DipDrv:  MaxL=1.
 Leave Link  303 at Wed May 26 14:08:55 2021, MaxMem=   33554432 cpu:       0.1
 (Enter /home/emil/gauss09/g09/l401.exe)
 Harris functional with IExCor=  205 diagonalized for initial guess.
 ExpMin= 1.43D-01 ExpMax= 2.52D+04 ExpMxC= 3.78D+03 IAcc=1 IRadAn=         1 AccDes= 0.00D+00
 HarFok:  IExCor=  205 AccDes= 0.00D+00 IRadAn=         1 IDoV= 1
 ScaDFX=  1.000000  1.000000  1.000000  1.000000
 FoFCou: FMM=F IPFlag=           0 FMFlag=      100000 FMFlg1=           0
         NFxFlg=           0 DoJE=T BraDBF=F KetDBF=T FulRan=T
         Omega=  0.000000  0.000000  1.000000  0.000000  0.000000 ICntrl=     500 IOpCl=  0
         NMat0=    1 NMatS0=    1 NMatT0=    0 NMatD0=    1 NMtDS0=    0 NMtDT0=    0
         I1Cent=           4 NGrid=           0.
 Petite list used in FoFCou.
 Harris En= -1873.77585100526    
 Initial guess orbital symmetries:
       Occupied  (T2) (T2) (T2) (A1) (A1) (T2) (T2) (T2) (A1) (A1)
                 (T2) (T2) (T2) (T1) (T1) (T1) (E) (E) (T2) (T2)
                 (T2) (A1) (T2) (T2) (T2) (A1) (T2) (T2) (T2) (E)
                 (E) (T2) (T2) (T2) (T1) (T1) (T1)
       Virtual   (A1) (T2) (T2) (T2) (A1) (T2) (T2) (T2) (T2) (T2)
                 (T2) (A1) (E) (E) (T1) (T1) (T1) (T2) (T2) (T2)
                 (T2) (T2) (T2) (A1)
 The electronic state of the initial guess is 1-A1.
 Leave Link  401 at Wed May 26 14:08:55 2021, MaxMem=   33554432 cpu:       0.2
 (Enter /home/emil/gauss09/g09/l502.exe)
 Closed shell SCF:
 Requested convergence on RMS density matrix=1.00D-08 within 128 cycles.
 Requested convergence on MAX density matrix=1.00D-06.
 Requested convergence on             energy=1.00D-06.
 No special actions if energy rises.
 Using DIIS extrapolation, IDIIS=  1040.
 Integral symmetry usage will be decided dynamically.
 Keep R1 ints in memory in canonical form, NReq=2619651.
 IEnd=       30751 IEndB=       30751 NGot=    33554432 MDV=    31755190
 LenX=    31755190 LenY=    31751028
 Symmetry not used in FoFDir.
 MinBra= 0 MaxBra= 1 Meth= 1.
 IRaf=       0 NMat=   1 IRICut=       1 DoRegI=T DoRafI=F ISym2E= 0 JSym2E=0.

 Cycle   1  Pass 1  IDiag  1:
 E= -1875.52297044849    
 DIIS: error= 5.44D-02 at cycle   1 NSaved=   1.
 NSaved= 1 IEnMin= 1 EnMin= -1875.52297044849     IErMin= 1 ErrMin= 5.44D-02
 ErrMax= 5.44D-02 EMaxC= 1.00D-01 BMatC= 1.89D-01 BMatP= 1.89D-01
 IDIUse=3 WtCom= 4.56D-01 WtEn= 5.44D-01
 Coeff-Com:  0.100D+01
 Coeff-En:   0.100D+01
 Coeff:      0.100D+01
 Gap=     0.497 Goal=   None    Shift=    0.000
 GapD=    0.497 DampG=2.000 DampE=0.500 DampFc=1.0000 IDamp=-1.
 RMSDP=8.37D-03 MaxDP=1.11D-01              OVMax= 0.00D+00

 Cycle   2  Pass 1  IDiag  1:
 E= -1875.58828441102     Delta-E=       -0.065313962531 Rises=F Damp=F
 DIIS: error= 1.98D-02 at cycle   2 NSaved=   2.
 NSaved= 2 IEnMin= 2 EnMin= -1875.58828441102     IErMin= 2 ErrMin= 1.98D-02
 ErrMax= 1.98D-02 EMaxC= 1.00D-01 BMatC= 3.03D-02 BMatP= 1.89D-01
 IDIUse=3 WtCom= 8.02D-01 WtEn= 1.98D-01
 Coeff-Com:  0.210D+00 0.790D+00
 Coeff-En:   0.000D+00 0.100D+01
 Coeff:      0.169D+00 0.831D+00
 Gap=     0.581 Goal=   None    Shift=    0.000
 RMSDP=4.14D-03 MaxDP=5.64D-02 DE=-6.53D-02 OVMax= 0.00D+00

 Cycle   3  Pass 1  IDiag  1:
 E= -1875.61346084908     Delta-E=       -0.025176438059 Rises=F Damp=F
 DIIS: error= 9.86D-03 at cycle   3 NSaved=   3.
 NSaved= 3 IEnMin= 3 EnMin= -1875.61346084908     IErMin= 3 ErrMin= 9.86D-03
 ErrMax= 9.86D-03 EMaxC= 1.00D-01 BMatC= 5.07D-03 BMatP= 3.03D-02
 IDIUse=3 WtCom= 9.01D-01 WtEn= 9.86D-02
 Coeff-Com: -0.178D-01 0.279D+00 0.739D+00
 Coeff-En:   0.000D+00 0.684D-02 0.993D+00
 Coeff:     -0.161D-01 0.252D+00 0.764D+00
 Gap=     0.557 Goal=   None    Shift=    0.000
 RMSDP=1.37D-03 MaxDP=1.70D-02 DE=-2.52D-02 OVMax= 0.00D+00

 Cycle   4  Pass 1  IDiag  1:
 E= -1875.61929082598     Delta-E=       -0.005829976896 Rises=F Damp=F
 DIIS: error= 8.47D-04 at cycle   4 NSaved=   4.
 NSaved= 4 IEnMin= 4 EnMin= -1875.61929082598     IErMin= 4 ErrMin= 8.47D-04
 ErrMax= 8.47D-04 EMaxC= 1.00D-01 BMatC= 6.63D-05 BMatP= 5.07D-03
 IDIUse=3 WtCom= 9.92D-01 WtEn= 8.47D-03
 Coeff-Com:  0.369D-02-0.117D+00-0.168D+00 0.128D+01
 Coeff-En:   0.000D+00 0.000D+00 0.000D+00 0.100D+01
 Coeff:      0.366D-02-0.116D+00-0.167D+00 0.128D+01
 Gap=     0.561 Goal=   None    Shift=    0.000
 RMSDP=3.81D-04 MaxDP=5.55D-03 DE=-5.83D-03 OVMax= 0.00D+00

 Cycle   5  Pass 1  IDiag  1:
 E= -1875.61939839904     Delta-E=       -0.000107573062 Rises=F Damp=F
 DIIS: error= 5.66D-05 at cycle   5 NSaved=   5.
 NSaved= 5 IEnMin= 5 EnMin= -1875.61939839904     IErMin= 5 ErrMin= 5.66D-05
 ErrMax= 5.66D-05 EMaxC= 1.00D-01 BMatC= 3.91D-07 BMatP= 6.63D-05
 IDIUse=1 WtCom= 1.00D+00 WtEn= 0.00D+00
 Coeff-Com:  0.231D-04 0.138D-01 0.105D-01-0.248D+00 0.122D+01
 Coeff:      0.231D-04 0.138D-01 0.105D-01-0.248D+00 0.122D+01
 Gap=     0.561 Goal=   None    Shift=    0.000
 RMSDP=5.50D-05 MaxDP=5.02D-04 DE=-1.08D-04 OVMax= 0.00D+00

 Cycle   6  Pass 1  IDiag  1:
 E= -1875.61939994507     Delta-E=       -0.000001546027 Rises=F Damp=F
 DIIS: error= 1.70D-05 at cycle   6 NSaved=   6.
 NSaved= 6 IEnMin= 6 EnMin= -1875.61939994507     IErMin= 6 ErrMin= 1.70D-05
 ErrMax= 1.70D-05 EMaxC= 1.00D-01 BMatC= 8.22D-09 BMatP= 3.91D-07
 IDIUse=1 WtCom= 1.00D+00 WtEn= 0.00D+00
 Coeff-Com: -0.188D-03 0.331D-02 0.586D-02-0.290D-01-0.522D-01 0.107D+01
 Coeff:     -0.188D-03 0.331D-02 0.586D-02-0.290D-01-0.522D-01 0.107D+01
 Gap=     0.561 Goal=   None    Shift=    0.000
 RMSDP=4.84D-06 MaxDP=2.57D-05 DE=-1.55D-06 OVMax= 0.00D+00

 Cycle   7  Pass 1  IDiag  1:
 E= -1875.61939996465     Delta-E=       -0.000000019580 Rises=F Damp=F
 DIIS: error= 3.34D-06 at cycle   7 NSaved=   7.
 NSaved= 7 IEnMin= 7 EnMin= -1875.61939996465     IErMin= 7 ErrMin= 3.34D-06
 ErrMax= 3.34D-06 EMaxC= 1.00D-01 BMatC= 1.55D-10 BMatP= 8.22D-09
 IDIUse=1 WtCom= 1.00D+00 WtEn= 0.00D+00
 Coeff-Com:  0.115D-04-0.441D-03-0.388D-03 0.721D-02-0.308D-01-0.485D-01
 Coeff-Com:  0.107D+01
 Coeff:      0.115D-04-0.441D-03-0.388D-03 0.721D-02-0.308D-01-0.485D-01
 Coeff:      0.107D+01
 Gap=     0.561 Goal=   None    Shift=    0.000
 RMSDP=4.90D-07 MaxDP=6.11D-06 DE=-1.96D-08 OVMax= 0.00D+00

 Cycle   8  Pass 1  IDiag  1:
 E= -1875.61939996498     Delta-E=       -0.000000000332 Rises=F Damp=F
 DIIS: error= 3.34D-07 at cycle   8 NSaved=   8.
 NSaved= 8 IEnMin= 8 EnMin= -1875.61939996498     IErMin= 8 ErrMin= 3.34D-07
 ErrMax= 3.34D-07 EMaxC= 1.00D-01 BMatC= 2.28D-12 BMatP= 1.55D-10
 IDIUse=1 WtCom= 1.00D+00 WtEn= 0.00D+00
 Coeff-Com: -0.676D-06 0.550D-04 0.301D-04-0.110D-02 0.572D-02-0.148D-02
 Coeff-Com: -0.174D+00 0.117D+01
 Coeff:     -0.676D-06 0.550D-04 0.301D-04-0.110D-02 0.572D-02-0.148D-02
 Coeff:     -0.174D+00 0.117D+01
 Gap=     0.561 Goal=   None    Shift=    0.000
 RMSDP=7.32D-08 MaxDP=8.48D-07 DE=-3.32D-10 OVMax= 0.00D+00

 Cycle   9  Pass 1  IDiag  1:
 E= -1875.61939996499     Delta-E=       -0.000000000011 Rises=F Damp=F
 DIIS: error= 6.51D-08 at cycle   9 NSaved=   9.
 NSaved= 9 IEnMin= 9 EnMin= -1875.61939996499     IErMin= 9 ErrMin= 6.51D-08
 ErrMax= 6.51D-08 EMaxC= 1.00D-01 BMatC= 8.37D-14 BMatP= 2.28D-12
 IDIUse=1 WtCom= 1.00D+00 WtEn= 0.00D+00
 Coeff-Com: -0.911D-07-0.378D-05 0.323D-05 0.110D-03-0.670D-03 0.126D-02
 Coeff-Com:  0.175D-01-0.281D+00 0.126D+01
 Coeff:     -0.911D-07-0.378D-05 0.323D-05 0.110D-03-0.670D-03 0.126D-02
 Coeff:      0.175D-01-0.281D+00 0.126D+01
 Gap=     0.561 Goal=   None    Shift=    0.000
 RMSDP=1.27D-08 MaxDP=1.85D-07 DE=-1.14D-11 OVMax= 0.00D+00

 Cycle  10  Pass 1  IDiag  1:
 E= -1875.61939996498     Delta-E=        0.000000000013 Rises=F Damp=F
 DIIS: error= 3.01D-09 at cycle  10 NSaved=  10.
 NSaved=10 IEnMin= 9 EnMin= -1875.61939996499     IErMin=10 ErrMin= 3.01D-09
 ErrMax= 3.01D-09 EMaxC= 1.00D-01 BMatC= 3.89D-16 BMatP= 8.37D-14
 IDIUse=1 WtCom= 1.00D+00 WtEn= 0.00D+00
 Coeff-Com:  0.184D-07 0.323D-06-0.749D-06-0.119D-04 0.712D-04-0.190D-03
 Coeff-Com: -0.191D-02 0.460D-01-0.254D+00 0.121D+01
 Coeff:      0.184D-07 0.323D-06-0.749D-06-0.119D-04 0.712D-04-0.190D-03
 Coeff:     -0.191D-02 0.460D-01-0.254D+00 0.121D+01
 Gap=     0.561 Goal=   None    Shift=    0.000
 RMSDP=8.02D-10 MaxDP=9.44D-09 DE= 1.27D-11 OVMax= 0.00D+00

 SCF Done:  E(RHF) =  -1875.61939996     A.U. after   10 cycles
             Convg  =    0.8020D-09             -V/T =  1.9994
 KE= 1.876720426633D+03 PE=-5.344047477245D+03 EE= 1.151593842708D+03
 Leave Link  502 at Wed May 26 14:08:55 2021, MaxMem=   33554432 cpu:       0.2
 (Enter /home/emil/gauss09/g09/l601.exe)
 Copying SCF densities to generalized density rwf, IOpCl= 0 IROHF=0.

 **********************************************************************

            Population analysis using the SCF density.

 **********************************************************************

 Orbital symmetries:
       Occupied  (T2) (T2) (T2) (A1) (A1) (T2) (T2) (T2) (A1) (A1)
                 (T2) (T2) (T2) (T1) (T1) (T1) (E) (E) (T2) (T2)
                 (T2) (A1) (T2) (T2) (T2) (A1) (T2) (T2) (T2) (E)
                 (E) (T2) (T2) (T2) (T1) (T1) (T1)
       Virtual   (A1) (T2) (T2) (T2) (A1) (T2) (T2) (T2) (T2) (T2)
                 (T2) (A1) (E) (E) (T1) (T1) (T1) (T2) (T2) (T2)
                 (T2) (T2) (T2) (A1)
 The electronic state is 1-A1.
 Alpha  occ. eigenvalues -- -104.87336-104.87336-104.87336-104.87334 -11.51072
 Alpha  occ. eigenvalues --  -10.61551 -10.61551 -10.61551 -10.61548  -8.08404
 Alpha  occ. eigenvalues --   -8.08403  -8.08403  -8.08403  -8.07898  -8.07898
 Alpha  occ. eigenvalues --   -8.07898  -8.07897  -8.07897  -8.07897  -8.07897
 Alpha  occ. eigenvalues --   -8.07897  -1.32234  -1.15084  -1.15084  -1.15084
 Alpha  occ. eigenvalues --   -0.84425  -0.67259  -0.67259  -0.67259  -0.54151
 Alpha  occ. eigenvalues --   -0.54151  -0.49594  -0.49594  -0.49594  -0.47597
 Alpha  occ. eigenvalues --   -0.47597  -0.47597
 Alpha virt. eigenvalues --    0.08476   0.14475   0.14475   0.14475   0.41091
 Alpha virt. eigenvalues --    0.50853   0.50853   0.50853   0.59907   0.59907
 Alpha virt. eigenvalues --    0.59907   0.61808   0.61940   0.61940   0.70850
 Alpha virt. eigenvalues --    0.70850   0.70850   0.80870   0.80870   0.80870
 Alpha virt. eigenvalues --    0.87213   0.87213   0.87213   1.39708
          Condensed to atoms (all electrons):
              1          2          3          4          5
     1  C    6.607569   0.053073   0.053073   0.053073   0.053073
     2  Cl   0.053073  16.987229  -0.081756  -0.081756  -0.081756
     3  Cl   0.053073  -0.081756  16.987229  -0.081756  -0.081756
     4  Cl   0.053073  -0.081756  -0.081756  16.987229  -0.081756
     5  Cl   0.053073  -0.081756  -0.081756  -0.081756  16.987229
 Mulliken atomic charges:
              1
     1  C   -0.819862
     2  Cl   0.204966
     3  Cl   0.204966
     4  Cl   0.204966
     5  Cl   0.204966
 Sum of Mulliken atomic charges =   0.00000
 Mulliken charges with hydrogens summed into heavy atoms:
              1
     1  C   -0.819862
     2  Cl   0.204966
     3  Cl   0.204966
     4  Cl   0.204966
     5  Cl   0.204966
 Sum of Mulliken charges with hydrogens summed into heavy atoms =   0.00000
 Electronic spatial extent (au):  <R**2>=            886.3392
 Charge=              0.0000 electrons
 Dipole moment (field-independent basis, Debye):
    X=              0.0000    Y=              0.0000    Z=              0.0000  Tot=              0.0000
 Quadrupole moment (field-independent basis, Debye-Ang):
   XX=            -57.3382   YY=            -57.3382   ZZ=            -57.3382
   XY=              0.0000   XZ=              0.0000   YZ=              0.0000
 Traceless Quadrupole moment (field-independent basis, Debye-Ang):
   XX=              0.0000   YY=              0.0000   ZZ=              0.0000
   XY=              0.0000   XZ=              0.0000   YZ=              0.0000
 Octapole moment (field-independent basis, Debye-Ang**2):
  XXX=              0.0000  YYY=              0.0000  ZZZ=              0.0000  XYY=              0.0000
  XXY=              0.0000  XXZ=              0.0000  XZZ=              0.0000  YZZ=              0.0000
  YYZ=              0.0000  XYZ=              3.0410
 Hexadecapole moment (field-independent basis, Debye-Ang**3):
 XXXX=           -372.8598 YYYY=           -372.8598 ZZZZ=           -372.8598 XXXY=              0.0000
 XXXZ=              0.0000 YYYX=              0.0000 YYYZ=              0.0000 ZZZX=              0.0000
 ZZZY=              0.0000 XXYY=           -117.0302 XXZZ=           -117.0302 YYZZ=           -117.0302
 XXYZ=              0.0000 YYXZ=              0.0000 ZZXY=              0.0000
 N-N= 4.401138079385D+02 E-N=-5.344047477230D+03  KE= 1.876720426633D+03
 Symmetry A    KE= 4.922511994662D+02
 Symmetry B1   KE= 4.614897423888D+02
 Symmetry B2   KE= 4.614897423888D+02
 Symmetry B3   KE= 4.614897423888D+02
 No NMR shielding tensors so no spin-rotation constants.
 Leave Link  601 at Wed May 26 14:08:55 2021, MaxMem=   33554432 cpu:       0.1
 (Enter /home/emil/gauss09/g09/l9999.exe)
 1\1\GINC-KONG-SRV\SP\RHF\6-31G\C1Cl4\EMIL\26-May-2021\0\\#P HF/6-31G\\
 CCl4\\0,1\C\Cl,1,1.7673\Cl,1,1.7673,2,109.47122063\Cl,1,1.7673,2,109.4
 7122063,3,120.,0\Cl,1,1.7673,2,109.47122063,3,-120.,0\\Version=EM64L-G
 09RevB.01\State=1-A1\HF=-1875.6194\RMSD=8.020e-10\Dipole=0.,0.,0.\Quad
 rupole=0.,0.,0.,0.,0.,0.\PG=TD [O(C1),4C3(Cl1)]\\@


 Change starts when someone sees the next step.
                            -- William Drayton
 Job cpu time:  0 days  0 hours  0 minutes  1.1 seconds.
 File lengths (MBytes):  RWF=      5 Int=      0 D2E=      0 Chk=      1 Scr=      1
 Normal termination of Gaussian 09 at Wed May 26 14:08:55 2021.
