 Entering Gaussian System, Link 0=g09
 Input=CF4.com
 Output=CF4.log
 Initial command:
 /home/emil/gauss09/g09/l1.exe /home/emil/scratch/g09/Gau-9919.inp -scrdir=/home/emil/scratch/g09/
 Entering Link 1 = /home/emil/gauss09/g09/l1.exe PID=      9921.
  
 Copyright (c) 1988,1990,1992,1993,1995,1998,2003,2009,2010,
            Gaussian, Inc.  All Rights Reserved.
  
 This is part of the Gaussian(R) 09 program.  It is based on
 the Gaussian(R) 03 system (copyright 2003, Gaussian, Inc.),
 the Gaussian(R) 98 system (copyright 1998, Gaussian, Inc.),
 the Gaussian(R) 94 system (copyright 1995, Gaussian, Inc.),
 the Gaussian 92(TM) system (copyright 1992, Gaussian, Inc.),
 the Gaussian 90(TM) system (copyright 1990, Gaussian, Inc.),
 the Gaussian 88(TM) system (copyright 1988, Gaussian, Inc.),
 the Gaussian 86(TM) system (copyright 1986, Carnegie Mellon
 University), and the Gaussian 82(TM) system (copyright 1983,
 Carnegie Mellon University). Gaussian is a federally registered
 trademark of Gaussian, Inc.
  
 This software contains proprietary and confidential information,
 including trade secrets, belonging to Gaussian, Inc.
  
 This software is provided under written license and may be
 used, copied, transmitted, or stored only in accord with that
 written license.
  
 The following legend is applicable only to US Government
 contracts under FAR:
  
                    RESTRICTED RIGHTS LEGEND
  
 Use, reproduction and disclosure by the US Government is
 subject to restrictions as set forth in subparagraphs (a)
 and (c) of the Commercial Computer Software - Restricted
 Rights clause in FAR 52.227-19.
  
 Gaussian, Inc.
 340 Quinnipiac St., Bldg. 40, Wallingford CT 06492
  
  
 ---------------------------------------------------------------
 Warning -- This program may not be used in any manner that
 competes with the business of Gaussian, Inc. or will provide
 assistance to any competitor of Gaussian, Inc.  The licensee
 of this program is prohibited from giving any competitor of
 Gaussian, Inc. access to this program.  By using this program,
 the user acknowledges that Gaussian, Inc. is engaged in the
 business of creating and licensing software in the field of
 computational chemistry and represents and warrants to the
 licensee that it is not a competitor of Gaussian, Inc. and that
 it will not use this program in any manner prohibited above.
 ---------------------------------------------------------------
  

 Cite this work as:
 Gaussian 09, Revision B.01,
 M. J. Frisch, G. W. Trucks, H. B. Schlegel, G. E. Scuseria, 
 M. A. Robb, J. R. Cheeseman, G. Scalmani, V. Barone, B. Mennucci, 
 G. A. Petersson, H. Nakatsuji, M. Caricato, X. Li, H. P. Hratchian, 
 A. F. Izmaylov, J. Bloino, G. Zheng, J. L. Sonnenberg, M. Hada, 
 M. Ehara, K. Toyota, R. Fukuda, J. Hasegawa, M. Ishida, T. Nakajima, 
 Y. Honda, O. Kitao, H. Nakai, T. Vreven, J. A. Montgomery, Jr., 
 J. E. Peralta, F. Ogliaro, M. Bearpark, J. J. Heyd, E. Brothers, 
 K. N. Kudin, V. N. Staroverov, T. Keith, R. Kobayashi, J. Normand, 
 K. Raghavachari, A. Rendell, J. C. Burant, S. S. Iyengar, J. Tomasi, 
 M. Cossi, N. Rega, J. M. Millam, M. Klene, J. E. Knox, J. B. Cross, 
 V. Bakken, C. Adamo, J. Jaramillo, R. Gomperts, R. E. Stratmann, 
 O. Yazyev, A. J. Austin, R. Cammi, C. Pomelli, J. W. Ochterski, 
 R. L. Martin, K. Morokuma, V. G. Zakrzewski, G. A. Voth, 
 P. Salvador, J. J. Dannenberg, S. Dapprich, A. D. Daniels, 
 O. Farkas, J. B. Foresman, J. V. Ortiz, J. Cioslowski, 
 and D. J. Fox, Gaussian, Inc., Wallingford CT, 2010.
 
 ******************************************
 Gaussian 09:  EM64L-G09RevB.01 12-Aug-2010
                26-May-2021 
 ******************************************
 -----------
 #P HF/6-31G
 -----------
 1/38=1/1;
 2/12=2,17=6,18=5,40=1/2;
 3/5=1,6=6,11=9,16=1,25=1,30=1/1,2,3;
 4//1;
 5/5=2,38=5/2;
 6/7=2,8=2,9=2,10=2,28=1/1;
 99/5=1,9=1/99;
 Leave Link    1 at Wed May 26 14:12:51 2021, MaxMem=          0 cpu:       0.0
 (Enter /home/emil/gauss09/g09/l101.exe)
 ---
 CF4
 ---
 Symbolic Z-matrix:
 Charge =  0 Multiplicity = 1
 C
 F                    1    R
 F                    1    R        2    A
 F                    1    R        2    A        3     120.     0
 F                    1    R        2    A        3    -120.     0
       Variables:
  R                     1.31507                  
  A                   109.47122                  
 
     3 tetrahedral angles replaced.
 NAtoms=      5 NQM=      5 NQMF=      0 NMic=      0 NMicF=      0 NTot=      5.
    3 tetrahedral angles replaced.
                    Isotopes and Nuclear Properties:
 (Nuclear quadrupole moments (NQMom) in fm**2, nuclear magnetic moments (NMagM)
  in nuclear magnetons)

  Atom         1           2           3           4           5
 IAtWgt=          12          19          19          19          19
 AtmWgt=  12.0000000  18.9984033  18.9984033  18.9984033  18.9984033
 NucSpn=           0           1           1           1           1
 AtZEff=   0.0000000   0.0000000   0.0000000   0.0000000   0.0000000
 NQMom=    0.0000000   0.0000000   0.0000000   0.0000000   0.0000000
 NMagM=    0.0000000   2.6288670   2.6288670   2.6288670   2.6288670
 Leave Link  101 at Wed May 26 14:12:51 2021, MaxMem=   33554432 cpu:       0.2
 (Enter /home/emil/gauss09/g09/l202.exe)
                          Input orientation:                          
 ---------------------------------------------------------------------
 Center     Atomic      Atomic             Coordinates (Angstroms)
 Number     Number       Type             X           Y           Z
 ---------------------------------------------------------------------
      1          6           0        0.000000    0.000000    0.000000
      2          9           0        0.000000    0.000000    1.315069
      3          9           0        1.239859    0.000000   -0.438356
      4          9           0       -0.619929   -1.073749   -0.438356
      5          9           0       -0.619929    1.073749   -0.438356
 ---------------------------------------------------------------------
                    Distance matrix (angstroms):
                    1          2          3          4          5
     1  C    0.000000
     2  F    1.315069   0.000000
     3  F    1.315069   2.147498   0.000000
     4  F    1.315069   2.147498   2.147498   0.000000
     5  F    1.315069   2.147498   2.147498   2.147498   0.000000
 Stoichiometry    CF4
 Framework group  TD[O(C),4C3(F)]
 Deg. of freedom     1
 Full point group                 TD      NOp  24
 Largest Abelian subgroup         D2      NOp   4
 Largest concise Abelian subgroup D2      NOp   4
                         Standard orientation:                         
 ---------------------------------------------------------------------
 Center     Atomic      Atomic             Coordinates (Angstroms)
 Number     Number       Type             X           Y           Z
 ---------------------------------------------------------------------
      1          6           0        0.000000    0.000000    0.000000
      2          9           0        0.759255    0.759255    0.759255
      3          9           0       -0.759255   -0.759255    0.759255
      4          9           0       -0.759255    0.759255   -0.759255
      5          9           0        0.759255   -0.759255   -0.759255
 ---------------------------------------------------------------------
 Rotational constants (GHZ):      5.7681229      5.7681229      5.7681229
 Leave Link  202 at Wed May 26 14:12:51 2021, MaxMem=   33554432 cpu:       0.0
 (Enter /home/emil/gauss09/g09/l301.exe)
 Standard basis: 6-31G (6D, 7F)
 Ernie: Thresh=  0.10000D-02 Tol=  0.10000D-05 Strict=F.
 There are    12 symmetry adapted basis functions of A   symmetry.
 There are    11 symmetry adapted basis functions of B1  symmetry.
 There are    11 symmetry adapted basis functions of B2  symmetry.
 There are    11 symmetry adapted basis functions of B3  symmetry.
 Integral buffers will be    131072 words long.
 Raffenetti 1 integral format.
 Two-electron integral symmetry is turned on.
    45 basis functions,   110 primitive gaussians,    45 cartesian basis functions
    21 alpha electrons       21 beta electrons
       nuclear repulsion energy       206.6753652383 Hartrees.
 IExCor=    0 DFT=F Ex=HF Corr=None ExCW=0 ScaHFX=  1.000000
 ScaDFX=  1.000000  1.000000  1.000000  1.000000 ScalE2=  1.000000  1.000000
 IRadAn=      0 IRanWt=     -1 IRanGd=            0 ICorTp=0
 NAtoms=    5 NActive=    5 NUniq=    2 SFac= 4.00D+00 NAtFMM=   50 NAOKFM=F Big=F
 Leave Link  301 at Wed May 26 14:12:52 2021, MaxMem=   33554432 cpu:       0.1
 (Enter /home/emil/gauss09/g09/l302.exe)
 NPDir=0 NMtPBC=     1 NCelOv=     1 NCel=       1 NClECP=     1 NCelD=      1
         NCelK=      1 NCelE2=     1 NClLst=     1 CellRange=     0.0.
 One-electron integrals computed using PRISM.
 One-electron integral symmetry used in STVInt
 NBasis=    45 RedAO= T  NBF=    12    11    11    11
 NBsUse=    45 1.00D-06 NBFU=    12    11    11    11
 Leave Link  302 at Wed May 26 14:12:52 2021, MaxMem=   33554432 cpu:       0.2
 (Enter /home/emil/gauss09/g09/l303.exe)
 DipDrv:  MaxL=1.
 Leave Link  303 at Wed May 26 14:12:52 2021, MaxMem=   33554432 cpu:       0.0
 (Enter /home/emil/gauss09/g09/l401.exe)
 Harris functional with IExCor=  205 diagonalized for initial guess.
 ExpMin= 1.69D-01 ExpMax= 7.00D+03 ExpMxC= 1.05D+03 IAcc=1 IRadAn=         1 AccDes= 0.00D+00
 HarFok:  IExCor=  205 AccDes= 0.00D+00 IRadAn=         1 IDoV= 1
 ScaDFX=  1.000000  1.000000  1.000000  1.000000
 FoFCou: FMM=F IPFlag=           0 FMFlag=      100000 FMFlg1=           0
         NFxFlg=           0 DoJE=T BraDBF=F KetDBF=T FulRan=T
         Omega=  0.000000  0.000000  1.000000  0.000000  0.000000 ICntrl=     500 IOpCl=  0
         NMat0=    1 NMatS0=    1 NMatT0=    0 NMatD0=    1 NMtDS0=    0 NMtDT0=    0
         I1Cent=           4 NGrid=           0.
 Petite list used in FoFCou.
 Harris En= -435.425843534684    
 Initial guess orbital symmetries:
       Occupied  (A1) (T2) (T2) (T2) (A1) (A1) (T2) (T2) (T2) (A1)
                 (T2) (T2) (T2) (E) (E) (T2) (T2) (T2) (T1) (T1)
                 (T1)
       Virtual   (A1) (T2) (T2) (T2) (T2) (T2) (T2) (A1) (E) (E)
                 (T2) (T2) (T2) (A1) (T1) (T1) (T1) (T2) (T2) (T2)
                 (T2) (T2) (T2) (A1)
 The electronic state of the initial guess is 1-A1.
 Leave Link  401 at Wed May 26 14:12:52 2021, MaxMem=   33554432 cpu:       0.1
 (Enter /home/emil/gauss09/g09/l502.exe)
 Closed shell SCF:
 Requested convergence on RMS density matrix=1.00D-08 within 128 cycles.
 Requested convergence on MAX density matrix=1.00D-06.
 Requested convergence on             energy=1.00D-06.
 No special actions if energy rises.
 Using DIIS extrapolation, IDIIS=  1040.
 Integral symmetry usage will be decided dynamically.
 Keep R1 ints in memory in canonical form, NReq=1361455.
 IEnd=       25311 IEndB=       25311 NGot=    33554432 MDV=    33011674
 LenX=    33011674 LenY=    33009208
 Symmetry not used in FoFDir.
 MinBra= 0 MaxBra= 1 Meth= 1.
 IRaf=       0 NMat=   1 IRICut=       1 DoRegI=T DoRafI=F ISym2E= 0 JSym2E=0.

 Cycle   1  Pass 1  IDiag  1:
 E= -435.410017680808    
 DIIS: error= 4.89D-02 at cycle   1 NSaved=   1.
 NSaved= 1 IEnMin= 1 EnMin= -435.410017680808     IErMin= 1 ErrMin= 4.89D-02
 ErrMax= 4.89D-02 EMaxC= 1.00D-01 BMatC= 1.62D-01 BMatP= 1.62D-01
 IDIUse=3 WtCom= 5.11D-01 WtEn= 4.89D-01
 Coeff-Com:  0.100D+01
 Coeff-En:   0.100D+01
 Coeff:      0.100D+01
 Gap=     1.010 Goal=   None    Shift=    0.000
 GapD=    1.010 DampG=2.000 DampE=0.500 DampFc=1.0000 IDamp=-1.
 RMSDP=5.96D-03 MaxDP=8.06D-02              OVMax= 3.98D-02

 Cycle   2  Pass 1  IDiag  1:
 E= -435.468214138358     Delta-E=       -0.058196457549 Rises=F Damp=F
 DIIS: error= 1.58D-02 at cycle   2 NSaved=   2.
 NSaved= 2 IEnMin= 2 EnMin= -435.468214138358     IErMin= 2 ErrMin= 1.58D-02
 ErrMax= 1.58D-02 EMaxC= 1.00D-01 BMatC= 2.27D-02 BMatP= 1.62D-01
 IDIUse=3 WtCom= 8.42D-01 WtEn= 1.58D-01
 Coeff-Com:  0.198D+00 0.802D+00
 Coeff-En:   0.000D+00 0.100D+01
 Coeff:      0.167D+00 0.833D+00
 Gap=     1.082 Goal=   None    Shift=    0.000
 RMSDP=2.85D-03 MaxDP=2.19D-02 DE=-5.82D-02 OVMax= 2.53D-02

 Cycle   3  Pass 1  IDiag  1:
 E= -435.481945478686     Delta-E=       -0.013731340329 Rises=F Damp=F
 DIIS: error= 6.08D-03 at cycle   3 NSaved=   3.
 NSaved= 3 IEnMin= 3 EnMin= -435.481945478686     IErMin= 3 ErrMin= 6.08D-03
 ErrMax= 6.08D-03 EMaxC= 1.00D-01 BMatC= 2.39D-03 BMatP= 2.27D-02
 IDIUse=3 WtCom= 9.39D-01 WtEn= 6.08D-02
 Coeff-Com: -0.319D-01 0.206D+00 0.826D+00
 Coeff-En:   0.000D+00 0.000D+00 0.100D+01
 Coeff:     -0.300D-01 0.193D+00 0.837D+00
 Gap=     1.072 Goal=   None    Shift=    0.000
 RMSDP=6.82D-04 MaxDP=8.01D-03 DE=-1.37D-02 OVMax= 4.64D-03

 Cycle   4  Pass 1  IDiag  1:
 E= -435.483721075822     Delta-E=       -0.001775597136 Rises=F Damp=F
 DIIS: error= 5.61D-04 at cycle   4 NSaved=   4.
 NSaved= 4 IEnMin= 4 EnMin= -435.483721075822     IErMin= 4 ErrMin= 5.61D-04
 ErrMax= 5.61D-04 EMaxC= 1.00D-01 BMatC= 3.90D-05 BMatP= 2.39D-03
 IDIUse=3 WtCom= 9.94D-01 WtEn= 5.61D-03
 Coeff-Com:  0.651D-02-0.990D-01-0.278D+00 0.137D+01
 Coeff-En:   0.000D+00 0.000D+00 0.000D+00 0.100D+01
 Coeff:      0.647D-02-0.985D-01-0.277D+00 0.137D+01
 Gap=     1.074 Goal=   None    Shift=    0.000
 RMSDP=2.67D-04 MaxDP=9.99D-04 DE=-1.78D-03 OVMax= 3.12D-03

 Cycle   5  Pass 1  IDiag  1:
 E= -435.483800194555     Delta-E=       -0.000079118733 Rises=F Damp=F
 DIIS: error= 9.85D-05 at cycle   5 NSaved=   5.
 NSaved= 5 IEnMin= 5 EnMin= -435.483800194555     IErMin= 5 ErrMin= 9.85D-05
 ErrMax= 9.85D-05 EMaxC= 1.00D-01 BMatC= 6.49D-07 BMatP= 3.90D-05
 IDIUse=1 WtCom= 1.00D+00 WtEn= 0.00D+00
 Coeff-Com:  0.585D-03 0.299D-02 0.380D-02-0.129D+00 0.112D+01
 Coeff:      0.585D-03 0.299D-02 0.380D-02-0.129D+00 0.112D+01
 Gap=     1.075 Goal=   None    Shift=    0.000
 RMSDP=3.16D-05 MaxDP=2.06D-04 DE=-7.91D-05 OVMax= 3.24D-04

 Cycle   6  Pass 1  IDiag  1:
 E= -435.483801258022     Delta-E=       -0.000001063467 Rises=F Damp=F
 DIIS: error= 1.76D-05 at cycle   6 NSaved=   6.
 NSaved= 6 IEnMin= 6 EnMin= -435.483801258022     IErMin= 6 ErrMin= 1.76D-05
 ErrMax= 1.76D-05 EMaxC= 1.00D-01 BMatC= 1.73D-08 BMatP= 6.49D-07
 IDIUse=1 WtCom= 1.00D+00 WtEn= 0.00D+00
 Coeff-Com: -0.350D-03 0.507D-02 0.138D-01-0.662D-01 0.123D-01 0.104D+01
 Coeff:     -0.350D-03 0.507D-02 0.138D-01-0.662D-01 0.123D-01 0.104D+01
 Gap=     1.075 Goal=   None    Shift=    0.000
 RMSDP=3.81D-06 MaxDP=2.80D-05 DE=-1.06D-06 OVMax= 3.40D-05

 Cycle   7  Pass 1  IDiag  1:
 E= -435.483801279243     Delta-E=       -0.000000021221 Rises=F Damp=F
 DIIS: error= 1.48D-06 at cycle   7 NSaved=   7.
 NSaved= 7 IEnMin= 7 EnMin= -435.483801279243     IErMin= 7 ErrMin= 1.48D-06
 ErrMax= 1.48D-06 EMaxC= 1.00D-01 BMatC= 1.20D-10 BMatP= 1.73D-08
 IDIUse=1 WtCom= 1.00D+00 WtEn= 0.00D+00
 Coeff-Com:  0.671D-04-0.997D-03-0.280D-02 0.140D-01-0.692D-02-0.215D+00
 Coeff-Com:  0.121D+01
 Coeff:      0.671D-04-0.997D-03-0.280D-02 0.140D-01-0.692D-02-0.215D+00
 Coeff:      0.121D+01
 Gap=     1.075 Goal=   None    Shift=    0.000
 RMSDP=3.04D-07 MaxDP=2.75D-06 DE=-2.12D-08 OVMax= 1.51D-06

 Cycle   8  Pass 1  IDiag  1:
 E= -435.483801279374     Delta-E=       -0.000000000131 Rises=F Damp=F
 DIIS: error= 1.07D-07 at cycle   8 NSaved=   8.
 NSaved= 8 IEnMin= 8 EnMin= -435.483801279374     IErMin= 8 ErrMin= 1.07D-07
 ErrMax= 1.07D-07 EMaxC= 1.00D-01 BMatC= 4.90D-13 BMatP= 1.20D-10
 IDIUse=1 WtCom= 1.00D+00 WtEn= 0.00D+00
 Coeff-Com: -0.436D-05 0.658D-04 0.193D-03-0.965D-03 0.198D-03 0.169D-01
 Coeff-Com: -0.128D+00 0.111D+01
 Coeff:     -0.436D-05 0.658D-04 0.193D-03-0.965D-03 0.198D-03 0.169D-01
 Coeff:     -0.128D+00 0.111D+01
 Gap=     1.075 Goal=   None    Shift=    0.000
 RMSDP=2.59D-08 MaxDP=2.89D-07 DE=-1.31D-10 OVMax= 8.93D-08

 Cycle   9  Pass 1  IDiag  1:
 E= -435.483801279376     Delta-E=       -0.000000000002 Rises=F Damp=F
 DIIS: error= 6.86D-09 at cycle   9 NSaved=   9.
 NSaved= 9 IEnMin= 9 EnMin= -435.483801279376     IErMin= 9 ErrMin= 6.86D-09
 ErrMax= 6.86D-09 EMaxC= 1.00D-01 BMatC= 2.47D-15 BMatP= 4.90D-13
 IDIUse=1 WtCom= 1.00D+00 WtEn= 0.00D+00
 Coeff-Com:  0.442D-06-0.667D-05-0.202D-04 0.102D-03 0.101D-04-0.198D-02
 Coeff-Com:  0.158D-01-0.170D+00 0.116D+01
 Coeff:      0.442D-06-0.667D-05-0.202D-04 0.102D-03 0.101D-04-0.198D-02
 Coeff:      0.158D-01-0.170D+00 0.116D+01
 Gap=     1.075 Goal=   None    Shift=    0.000
 RMSDP=1.65D-09 MaxDP=1.85D-08 DE=-1.93D-12 OVMax= 3.77D-09

 SCF Done:  E(RHF) =  -435.483801279     A.U. after    9 cycles
             Convg  =    0.1650D-08             -V/T =  1.9994
 KE= 4.357366194570D+02 PE=-1.452477271538D+03 EE= 3.745814855628D+02
 Leave Link  502 at Wed May 26 14:12:52 2021, MaxMem=   33554432 cpu:       0.1
 (Enter /home/emil/gauss09/g09/l601.exe)
 Copying SCF densities to generalized density rwf, IOpCl= 0 IROHF=0.

 **********************************************************************

            Population analysis using the SCF density.

 **********************************************************************

 Orbital symmetries:
       Occupied  (T2) (T2) (T2) (A1) (A1) (A1) (T2) (T2) (T2) (A1)
                 (T2) (T2) (T2) (E) (E) (T2) (T2) (T2) (T1) (T1)
                 (T1)
       Virtual   (T2) (T2) (T2) (A1) (T2) (T2) (T2) (A1) (E) (E)
                 (A1) (T2) (T2) (T2) (T1) (T1) (T1) (T2) (T2) (T2)
                 (T2) (T2) (T2) (A1)
 The electronic state is 1-A1.
 Alpha  occ. eigenvalues --  -26.39925 -26.39925 -26.39925 -26.39923 -11.65359
 Alpha  occ. eigenvalues --   -1.85084  -1.70946  -1.70946  -1.70946  -1.02478
 Alpha  occ. eigenvalues --   -0.90802  -0.90802  -0.90802  -0.77641  -0.77641
 Alpha  occ. eigenvalues --   -0.71698  -0.71698  -0.71698  -0.70216  -0.70216
 Alpha  occ. eigenvalues --   -0.70216
 Alpha virt. eigenvalues --    0.37264   0.37264   0.37264   0.37333   0.68477
 Alpha virt. eigenvalues --    0.68477   0.68477   0.68991   1.32623   1.32623
 Alpha virt. eigenvalues --    1.46706   1.47316   1.47316   1.47316   1.64408
 Alpha virt. eigenvalues --    1.64408   1.64408   1.83848   1.83848   1.83848
 Alpha virt. eigenvalues --    2.37083   2.37083   2.37083   2.81934
          Condensed to atoms (all electrons):
              1          2          3          4          5
     1  C    3.680206   0.236482   0.236482   0.236482   0.236482
     2  F    0.236482   9.263079  -0.052031  -0.052031  -0.052031
     3  F    0.236482  -0.052031   9.263079  -0.052031  -0.052031
     4  F    0.236482  -0.052031  -0.052031   9.263079  -0.052031
     5  F    0.236482  -0.052031  -0.052031  -0.052031   9.263079
 Mulliken atomic charges:
              1
     1  C    1.373866
     2  F   -0.343467
     3  F   -0.343467
     4  F   -0.343467
     5  F   -0.343467
 Sum of Mulliken atomic charges =   0.00000
 Mulliken charges with hydrogens summed into heavy atoms:
              1
     1  C    1.373866
     2  F   -0.343467
     3  F   -0.343467
     4  F   -0.343467
     5  F   -0.343467
 Sum of Mulliken charges with hydrogens summed into heavy atoms =   0.00000
 Electronic spatial extent (au):  <R**2>=            281.3302
 Charge=              0.0000 electrons
 Dipole moment (field-independent basis, Debye):
    X=              0.0000    Y=              0.0000    Z=              0.0000  Tot=              0.0000
 Quadrupole moment (field-independent basis, Debye-Ang):
   XX=            -26.4527   YY=            -26.4527   ZZ=            -26.4527
   XY=              0.0000   XZ=              0.0000   YZ=              0.0000
 Traceless Quadrupole moment (field-independent basis, Debye-Ang):
   XX=              0.0000   YY=              0.0000   ZZ=              0.0000
   XY=              0.0000   XZ=              0.0000   YZ=              0.0000
 Octapole moment (field-independent basis, Debye-Ang**2):
  XXX=              0.0000  YYY=              0.0000  ZZZ=              0.0000  XYY=              0.0000
  XXY=              0.0000  XXZ=              0.0000  XZZ=              0.0000  YZZ=              0.0000
  YYZ=              0.0000  XYZ=             -2.5683
 Hexadecapole moment (field-independent basis, Debye-Ang**3):
 XXXX=            -81.8749 YYYY=            -81.8749 ZZZZ=            -81.8749 XXXY=              0.0000
 XXXZ=              0.0000 YYYX=              0.0000 YYYZ=              0.0000 ZZZX=              0.0000
 ZZZY=              0.0000 XXYY=            -28.1580 XXZZ=            -28.1580 YYZZ=            -28.1580
 XXYZ=              0.0000 YYXZ=              0.0000 ZZXY=              0.0000
 N-N= 2.066753652383D+02 E-N=-1.452477271473D+03  KE= 4.357366194570D+02
 Symmetry A    KE= 1.318189340452D+02
 Symmetry B1   KE= 1.013058951373D+02
 Symmetry B2   KE= 1.013058951373D+02
 Symmetry B3   KE= 1.013058951373D+02
 No NMR shielding tensors so no spin-rotation constants.
 Leave Link  601 at Wed May 26 14:12:52 2021, MaxMem=   33554432 cpu:       0.1
 (Enter /home/emil/gauss09/g09/l9999.exe)
 1\1\GINC-KONG-SRV\SP\RHF\6-31G\C1F4\EMIL\26-May-2021\0\\#P HF/6-31G\\C
 F4\\0,1\C\F,1,1.31506866\F,1,1.31506866,2,109.47122063\F,1,1.31506866,
 2,109.47122063,3,120.,0\F,1,1.31506866,2,109.47122063,3,-120.,0\\Versi
 on=EM64L-G09RevB.01\State=1-A1\HF=-435.4838013\RMSD=1.650e-09\Dipole=0
 .,0.,0.\Quadrupole=0.,0.,0.,0.,0.,0.\PG=TD [O(C1),4C3(F1)]\\@


 FROM AN ANONYMOUS WRITER, ON PERSPECTIVE:

 MAN, DESPITE HIS ARTISTIC PRETENSIONS, HIS SOPHISTICATION AND MANY 
 ACCOMPLISHMENTS, OWES THE FACT OF HIS EXISTENCE TO A SIX-INCH LAYER OF 
 TOPSOIL AND THE FACT THAT IT RAINS.
 Job cpu time:  0 days  0 hours  0 minutes  0.9 seconds.
 File lengths (MBytes):  RWF=      5 Int=      0 D2E=      0 Chk=      1 Scr=      1
 Normal termination of Gaussian 09 at Wed May 26 14:12:52 2021.
