 Entering Gaussian System, Link 0=g09
 Input=CH2_3B1.com
 Output=CH2_3B1.log
 Initial command:
 /home/emil/gauss09/g09/l1.exe /home/emil/scratch/g09/Gau-9936.inp -scrdir=/home/emil/scratch/g09/
 Entering Link 1 = /home/emil/gauss09/g09/l1.exe PID=      9938.
  
 Copyright (c) 1988,1990,1992,1993,1995,1998,2003,2009,2010,
            Gaussian, Inc.  All Rights Reserved.
  
 This is part of the Gaussian(R) 09 program.  It is based on
 the Gaussian(R) 03 system (copyright 2003, Gaussian, Inc.),
 the Gaussian(R) 98 system (copyright 1998, Gaussian, Inc.),
 the Gaussian(R) 94 system (copyright 1995, Gaussian, Inc.),
 the Gaussian 92(TM) system (copyright 1992, Gaussian, Inc.),
 the Gaussian 90(TM) system (copyright 1990, Gaussian, Inc.),
 the Gaussian 88(TM) system (copyright 1988, Gaussian, Inc.),
 the Gaussian 86(TM) system (copyright 1986, Carnegie Mellon
 University), and the Gaussian 82(TM) system (copyright 1983,
 Carnegie Mellon University). Gaussian is a federally registered
 trademark of Gaussian, Inc.
  
 This software contains proprietary and confidential information,
 including trade secrets, belonging to Gaussian, Inc.
  
 This software is provided under written license and may be
 used, copied, transmitted, or stored only in accord with that
 written license.
  
 The following legend is applicable only to US Government
 contracts under FAR:
  
                    RESTRICTED RIGHTS LEGEND
  
 Use, reproduction and disclosure by the US Government is
 subject to restrictions as set forth in subparagraphs (a)
 and (c) of the Commercial Computer Software - Restricted
 Rights clause in FAR 52.227-19.
  
 Gaussian, Inc.
 340 Quinnipiac St., Bldg. 40, Wallingford CT 06492
  
  
 ---------------------------------------------------------------
 Warning -- This program may not be used in any manner that
 competes with the business of Gaussian, Inc. or will provide
 assistance to any competitor of Gaussian, Inc.  The licensee
 of this program is prohibited from giving any competitor of
 Gaussian, Inc. access to this program.  By using this program,
 the user acknowledges that Gaussian, Inc. is engaged in the
 business of creating and licensing software in the field of
 computational chemistry and represents and warrants to the
 licensee that it is not a competitor of Gaussian, Inc. and that
 it will not use this program in any manner prohibited above.
 ---------------------------------------------------------------
  

 Cite this work as:
 Gaussian 09, Revision B.01,
 M. J. Frisch, G. W. Trucks, H. B. Schlegel, G. E. Scuseria, 
 M. A. Robb, J. R. Cheeseman, G. Scalmani, V. Barone, B. Mennucci, 
 G. A. Petersson, H. Nakatsuji, M. Caricato, X. Li, H. P. Hratchian, 
 A. F. Izmaylov, J. Bloino, G. Zheng, J. L. Sonnenberg, M. Hada, 
 M. Ehara, K. Toyota, R. Fukuda, J. Hasegawa, M. Ishida, T. Nakajima, 
 Y. Honda, O. Kitao, H. Nakai, T. Vreven, J. A. Montgomery, Jr., 
 J. E. Peralta, F. Ogliaro, M. Bearpark, J. J. Heyd, E. Brothers, 
 K. N. Kudin, V. N. Staroverov, T. Keith, R. Kobayashi, J. Normand, 
 K. Raghavachari, A. Rendell, J. C. Burant, S. S. Iyengar, J. Tomasi, 
 M. Cossi, N. Rega, J. M. Millam, M. Klene, J. E. Knox, J. B. Cross, 
 V. Bakken, C. Adamo, J. Jaramillo, R. Gomperts, R. E. Stratmann, 
 O. Yazyev, A. J. Austin, R. Cammi, C. Pomelli, J. W. Ochterski, 
 R. L. Martin, K. Morokuma, V. G. Zakrzewski, G. A. Voth, 
 P. Salvador, J. J. Dannenberg, S. Dapprich, A. D. Daniels, 
 O. Farkas, J. B. Foresman, J. V. Ortiz, J. Cioslowski, 
 and D. J. Fox, Gaussian, Inc., Wallingford CT, 2010.
 
 ******************************************
 Gaussian 09:  EM64L-G09RevB.01 12-Aug-2010
                26-May-2021 
 ******************************************
 -----------
 #P HF/6-31G
 -----------
 1/38=1/1;
 2/12=2,17=6,18=5,40=1/2;
 3/5=1,6=6,11=9,16=1,25=1,30=1/1,2,3;
 4//1;
 5/5=2,38=5/2;
 6/7=2,8=2,9=2,10=2,28=1/1;
 99/5=1,9=1/99;
 Leave Link    1 at Wed May 26 14:16:33 2021, MaxMem=          0 cpu:       0.0
 (Enter /home/emil/gauss09/g09/l101.exe)
 -------
 CH2_3B1
 -------
 Symbolic Z-matrix:
 Charge =  0 Multiplicity = 3
 C
 H                    1    RCH
 H                    1    RCH      2    HCH
       Variables:
  RCH                   1.07672                  
  HCH                 133.83748                  
 
 NAtoms=      3 NQM=      3 NQMF=      0 NMic=      0 NMicF=      0 NTot=      3.
                    Isotopes and Nuclear Properties:
 (Nuclear quadrupole moments (NQMom) in fm**2, nuclear magnetic moments (NMagM)
  in nuclear magnetons)

  Atom         1           2           3
 IAtWgt=          12           1           1
 AtmWgt=  12.0000000   1.0078250   1.0078250
 NucSpn=           0           1           1
 AtZEff=   0.0000000   0.0000000   0.0000000
 NQMom=    0.0000000   0.0000000   0.0000000
 NMagM=    0.0000000   2.7928460   2.7928460
 Leave Link  101 at Wed May 26 14:16:33 2021, MaxMem=   33554432 cpu:       0.1
 (Enter /home/emil/gauss09/g09/l202.exe)
                          Input orientation:                          
 ---------------------------------------------------------------------
 Center     Atomic      Atomic             Coordinates (Angstroms)
 Number     Number       Type             X           Y           Z
 ---------------------------------------------------------------------
      1          6           0        0.000000    0.000000    0.000000
      2          1           0        0.000000    0.000000    1.076722
      3          1           0        0.776648    0.000000   -0.745754
 ---------------------------------------------------------------------
                    Distance matrix (angstroms):
                    1          2          3
     1  C    0.000000
     2  H    1.076722   0.000000
     3  H    1.076722   1.981061   0.000000
 Stoichiometry    CH2(3)
 Framework group  C2V[C2(C),SGV(H2)]
 Deg. of freedom     2
 Full point group                 C2V     NOp   4
 Largest Abelian subgroup         C2V     NOp   4
 Largest concise Abelian subgroup C2      NOp   2
                         Standard orientation:                         
 ---------------------------------------------------------------------
 Center     Atomic      Atomic             Coordinates (Angstroms)
 Number     Number       Type             X           Y           Z
 ---------------------------------------------------------------------
      1          6           0        0.000000    0.000000    0.105529
      2          1           0        0.000000    0.990531   -0.316586
      3          1           0        0.000000   -0.990531   -0.316586
 ---------------------------------------------------------------------
 Rotational constants (GHZ):   1643.5164862    255.5443602    221.1574051
 Leave Link  202 at Wed May 26 14:16:33 2021, MaxMem=   33554432 cpu:       0.0
 (Enter /home/emil/gauss09/g09/l301.exe)
 Standard basis: 6-31G (6D, 7F)
 Ernie: Thresh=  0.10000D-02 Tol=  0.10000D-05 Strict=F.
 There are     7 symmetry adapted basis functions of A1  symmetry.
 There are     0 symmetry adapted basis functions of A2  symmetry.
 There are     2 symmetry adapted basis functions of B1  symmetry.
 There are     4 symmetry adapted basis functions of B2  symmetry.
 Integral buffers will be    131072 words long.
 Raffenetti 2 integral format.
 Two-electron integral symmetry is turned on.
    13 basis functions,    30 primitive gaussians,    13 cartesian basis functions
     5 alpha electrons        3 beta electrons
       nuclear repulsion energy         6.1647628667 Hartrees.
 IExCor=    0 DFT=F Ex=HF Corr=None ExCW=0 ScaHFX=  1.000000
 ScaDFX=  1.000000  1.000000  1.000000  1.000000 ScalE2=  1.000000  1.000000
 IRadAn=      0 IRanWt=     -1 IRanGd=            0 ICorTp=0
 NAtoms=    3 NActive=    3 NUniq=    2 SFac= 2.25D+00 NAtFMM=   50 NAOKFM=F Big=F
 Leave Link  301 at Wed May 26 14:16:33 2021, MaxMem=   33554432 cpu:       0.0
 (Enter /home/emil/gauss09/g09/l302.exe)
 NPDir=0 NMtPBC=     1 NCelOv=     1 NCel=       1 NClECP=     1 NCelD=      1
         NCelK=      1 NCelE2=     1 NClLst=     1 CellRange=     0.0.
 One-electron integrals computed using PRISM.
 One-electron integral symmetry used in STVInt
 NBasis=    13 RedAO= T  NBF=     7     0     2     4
 NBsUse=    13 1.00D-06 NBFU=     7     0     2     4
 Leave Link  302 at Wed May 26 14:16:33 2021, MaxMem=   33554432 cpu:       0.1
 (Enter /home/emil/gauss09/g09/l303.exe)
 DipDrv:  MaxL=1.
 Leave Link  303 at Wed May 26 14:16:33 2021, MaxMem=   33554432 cpu:       0.1
 (Enter /home/emil/gauss09/g09/l401.exe)
 Harris functional with IExCor=  205 diagonalized for initial guess.
 ExpMin= 1.61D-01 ExpMax= 3.05D+03 ExpMxC= 4.57D+02 IAcc=1 IRadAn=         1 AccDes= 0.00D+00
 HarFok:  IExCor=  205 AccDes= 0.00D+00 IRadAn=         1 IDoV= 1
 ScaDFX=  1.000000  1.000000  1.000000  1.000000
 FoFCou: FMM=F IPFlag=           0 FMFlag=      100000 FMFlg1=           0
         NFxFlg=           0 DoJE=T BraDBF=F KetDBF=T FulRan=T
         Omega=  0.000000  0.000000  1.000000  0.000000  0.000000 ICntrl=     500 IOpCl=  0
         NMat0=    1 NMatS0=    1 NMatT0=    0 NMatD0=    1 NMtDS0=    0 NMtDT0=    0
         I1Cent=           4 NGrid=           0.
 Petite list used in FoFCou.
 Harris En= -38.8526784181349    
 Initial guess orbital symmetries:
 Alpha Orbitals:
       Occupied  (A1) (A1) (B2) (A1) (B1)
       Virtual   (A1) (B2) (A1) (B1) (B2) (A1) (A1) (B2)
 Beta  Orbitals:
       Occupied  (A1) (A1) (B2)
       Virtual   (A1) (B1) (A1) (B2) (A1) (B1) (B2) (A1) (A1) (B2)
 The electronic state of the initial guess is 3-B1.
 Initial guess <Sx>= 0.0000 <Sy>= 0.0000 <Sz>= 1.0000 <S**2>= 2.0000 S= 1.0000
 Leave Link  401 at Wed May 26 14:16:34 2021, MaxMem=   33554432 cpu:       0.3
 (Enter /home/emil/gauss09/g09/l502.exe)
 UHF open shell SCF:
 Requested convergence on RMS density matrix=1.00D-08 within 128 cycles.
 Requested convergence on MAX density matrix=1.00D-06.
 Requested convergence on             energy=1.00D-06.
 No special actions if energy rises.
 Using DIIS extrapolation, IDIIS=  1040.
 Integral symmetry usage will be decided dynamically.
 Keep R1 and R2 ints in memory in canonical form, NReq=828174.
 IEnd=       19781 IEndB=       19781 NGot=    33554432 MDV=    33543354
 LenX=    33543354 LenY=    33542472
 Symmetry not used in FoFDir.
 MinBra= 0 MaxBra= 1 Meth= 1.
 IRaf=       0 NMat=   1 IRICut=       1 DoRegI=T DoRafI=F ISym2E= 0 JSym2E=0.

 Cycle   1  Pass 1  IDiag  1:
 E= -38.8842364666346    
 DIIS: error= 4.65D-02 at cycle   1 NSaved=   1.
 NSaved= 1 IEnMin= 1 EnMin= -38.8842364666346     IErMin= 1 ErrMin= 4.65D-02
 ErrMax= 4.65D-02 EMaxC= 1.00D-01 BMatC= 9.85D-02 BMatP= 9.85D-02
 IDIUse=3 WtCom= 5.35D-01 WtEn= 4.65D-01
 Coeff-Com:  0.100D+01
 Coeff-En:   0.100D+01
 Coeff:      0.100D+01
 Gap=     0.620 Goal=   None    Shift=    0.000
 Gap=     0.777 Goal=   None    Shift=    0.000
 GapD=    0.620 DampG=2.000 DampE=0.500 DampFc=1.0000 IDamp=-1.
 RMSDP=1.20D-02 MaxDP=7.02D-02              OVMax= 8.07D-02

 Cycle   2  Pass 1  IDiag  1:
 E= -38.9086312466251     Delta-E=       -0.024394779990 Rises=F Damp=F
 DIIS: error= 9.65D-03 at cycle   2 NSaved=   2.
 NSaved= 2 IEnMin= 2 EnMin= -38.9086312466251     IErMin= 2 ErrMin= 9.65D-03
 ErrMax= 9.65D-03 EMaxC= 1.00D-01 BMatC= 5.69D-03 BMatP= 9.85D-02
 IDIUse=3 WtCom= 9.04D-01 WtEn= 9.65D-02
 Coeff-Com:  0.725D-01 0.928D+00
 Coeff-En:   0.000D+00 0.100D+01
 Coeff:      0.655D-01 0.935D+00
 Gap=     0.655 Goal=   None    Shift=    0.000
 Gap=     0.727 Goal=   None    Shift=    0.000
 RMSDP=3.48D-03 MaxDP=2.02D-02 DE=-2.44D-02 OVMax= 1.56D-02

 Cycle   3  Pass 1  IDiag  1:
 E= -38.9107807868111     Delta-E=       -0.002149540186 Rises=F Damp=F
 DIIS: error= 5.16D-03 at cycle   3 NSaved=   3.
 NSaved= 3 IEnMin= 3 EnMin= -38.9107807868111     IErMin= 3 ErrMin= 5.16D-03
 ErrMax= 5.16D-03 EMaxC= 1.00D-01 BMatC= 8.67D-04 BMatP= 5.69D-03
 IDIUse=3 WtCom= 9.48D-01 WtEn= 5.16D-02
 Coeff-Com: -0.392D-01-0.977D-01 0.114D+01
 Coeff-En:   0.000D+00 0.000D+00 0.100D+01
 Coeff:     -0.372D-01-0.927D-01 0.113D+01
 Gap=     0.655 Goal=   None    Shift=    0.000
 Gap=     0.728 Goal=   None    Shift=    0.000
 RMSDP=1.63D-03 MaxDP=8.23D-03 DE=-2.15D-03 OVMax= 1.38D-02

 Cycle   4  Pass 1  IDiag  1:
 E= -38.9113630310802     Delta-E=       -0.000582244269 Rises=F Damp=F
 DIIS: error= 2.27D-03 at cycle   4 NSaved=   4.
 NSaved= 4 IEnMin= 4 EnMin= -38.9113630310802     IErMin= 4 ErrMin= 2.27D-03
 ErrMax= 2.27D-03 EMaxC= 1.00D-01 BMatC= 2.19D-04 BMatP= 8.67D-04
 IDIUse=3 WtCom= 9.77D-01 WtEn= 2.27D-02
 Coeff-Com:  0.165D-01-0.565D-01-0.870D+00 0.191D+01
 Coeff-En:   0.000D+00 0.000D+00 0.000D+00 0.100D+01
 Coeff:      0.161D-01-0.553D-01-0.850D+00 0.189D+01
 Gap=     0.660 Goal=   None    Shift=    0.000
 Gap=     0.729 Goal=   None    Shift=    0.000
 RMSDP=1.56D-03 MaxDP=7.02D-03 DE=-5.82D-04 OVMax= 1.11D-02

 Cycle   5  Pass 1  IDiag  1:
 E= -38.9115707165695     Delta-E=       -0.000207685489 Rises=F Damp=F
 DIIS: error= 5.47D-04 at cycle   5 NSaved=   5.
 NSaved= 5 IEnMin= 5 EnMin= -38.9115707165695     IErMin= 5 ErrMin= 5.47D-04
 ErrMax= 5.47D-04 EMaxC= 1.00D-01 BMatC= 9.16D-06 BMatP= 2.19D-04
 IDIUse=3 WtCom= 9.95D-01 WtEn= 5.47D-03
 Coeff-Com: -0.939D-02 0.489D-01 0.523D+00-0.131D+01 0.175D+01
 Coeff-En:   0.000D+00 0.000D+00 0.000D+00 0.000D+00 0.100D+01
 Coeff:     -0.934D-02 0.487D-01 0.521D+00-0.130D+01 0.174D+01
 Gap=     0.661 Goal=   None    Shift=    0.000
 Gap=     0.728 Goal=   None    Shift=    0.000
 RMSDP=3.77D-04 MaxDP=1.71D-03 DE=-2.08D-04 OVMax= 1.99D-03

 Cycle   6  Pass 1  IDiag  1:
 E= -38.9115799885608     Delta-E=       -0.000009271991 Rises=F Damp=F
 DIIS: error= 1.03D-04 at cycle   6 NSaved=   6.
 NSaved= 6 IEnMin= 6 EnMin= -38.9115799885608     IErMin= 6 ErrMin= 1.03D-04
 ErrMax= 1.03D-04 EMaxC= 1.00D-01 BMatC= 4.82D-07 BMatP= 9.16D-06
 IDIUse=3 WtCom= 9.99D-01 WtEn= 1.03D-03
 Coeff-Com:  0.480D-02-0.276D-01-0.272D+00 0.691D+00-0.109D+01 0.169D+01
 Coeff-En:   0.000D+00 0.000D+00 0.000D+00 0.000D+00 0.000D+00 0.100D+01
 Coeff:      0.479D-02-0.276D-01-0.272D+00 0.691D+00-0.109D+01 0.169D+01
 Gap=     0.661 Goal=   None    Shift=    0.000
 Gap=     0.729 Goal=   None    Shift=    0.000
 RMSDP=1.16D-04 MaxDP=5.37D-04 DE=-9.27D-06 OVMax= 7.49D-04

 Cycle   7  Pass 1  IDiag  1:
 E= -38.9115805312369     Delta-E=       -0.000000542676 Rises=F Damp=F
 DIIS: error= 1.61D-05 at cycle   7 NSaved=   7.
 NSaved= 7 IEnMin= 7 EnMin= -38.9115805312369     IErMin= 7 ErrMin= 1.61D-05
 ErrMax= 1.61D-05 EMaxC= 1.00D-01 BMatC= 1.25D-08 BMatP= 4.82D-07
 IDIUse=1 WtCom= 1.00D+00 WtEn= 0.00D+00
 Coeff-Com: -0.164D-02 0.978D-02 0.928D-01-0.236D+00 0.387D+00-0.725D+00
 Coeff-Com:  0.147D+01
 Coeff:     -0.164D-02 0.978D-02 0.928D-01-0.236D+00 0.387D+00-0.725D+00
 Coeff:      0.147D+01
 Gap=     0.661 Goal=   None    Shift=    0.000
 Gap=     0.729 Goal=   None    Shift=    0.000
 RMSDP=1.48D-05 MaxDP=8.41D-05 DE=-5.43D-07 OVMax= 1.06D-04

 Cycle   8  Pass 1  IDiag  1:
 E= -38.9115805422408     Delta-E=       -0.000000011004 Rises=F Damp=F
 DIIS: error= 3.08D-06 at cycle   8 NSaved=   8.
 NSaved= 8 IEnMin= 8 EnMin= -38.9115805422408     IErMin= 8 ErrMin= 3.08D-06
 ErrMax= 3.08D-06 EMaxC= 1.00D-01 BMatC= 3.97D-10 BMatP= 1.25D-08
 IDIUse=1 WtCom= 1.00D+00 WtEn= 0.00D+00
 Coeff-Com:  0.244D-03-0.153D-02-0.141D-01 0.356D-01-0.602D-01 0.140D+00
 Coeff-Com: -0.432D+00 0.133D+01
 Coeff:      0.244D-03-0.153D-02-0.141D-01 0.356D-01-0.602D-01 0.140D+00
 Coeff:     -0.432D+00 0.133D+01
 Gap=     0.661 Goal=   None    Shift=    0.000
 Gap=     0.729 Goal=   None    Shift=    0.000
 RMSDP=1.83D-06 MaxDP=8.15D-06 DE=-1.10D-08 OVMax= 1.12D-05

 Cycle   9  Pass 1  IDiag  1:
 E= -38.9115805425016     Delta-E=       -0.000000000261 Rises=F Damp=F
 DIIS: error= 4.51D-07 at cycle   9 NSaved=   9.
 NSaved= 9 IEnMin= 9 EnMin= -38.9115805425016     IErMin= 9 ErrMin= 4.51D-07
 ErrMax= 4.51D-07 EMaxC= 1.00D-01 BMatC= 6.44D-12 BMatP= 3.97D-10
 IDIUse=1 WtCom= 1.00D+00 WtEn= 0.00D+00
 Coeff-Com: -0.405D-05 0.447D-04 0.266D-03-0.618D-03 0.138D-02-0.816D-02
 Coeff-Com:  0.365D-01-0.216D+00 0.119D+01
 Coeff:     -0.405D-05 0.447D-04 0.266D-03-0.618D-03 0.138D-02-0.816D-02
 Coeff:      0.365D-01-0.216D+00 0.119D+01
 Gap=     0.661 Goal=   None    Shift=    0.000
 Gap=     0.729 Goal=   None    Shift=    0.000
 RMSDP=3.09D-07 MaxDP=1.48D-06 DE=-2.61D-10 OVMax= 1.85D-06

 Cycle  10  Pass 1  IDiag  1:
 E= -38.9115805425062     Delta-E=       -0.000000000005 Rises=F Damp=F
 DIIS: error= 8.18D-08 at cycle  10 NSaved=  10.
 NSaved=10 IEnMin=10 EnMin= -38.9115805425062     IErMin=10 ErrMin= 8.18D-08
 ErrMax= 8.18D-08 EMaxC= 1.00D-01 BMatC= 1.49D-13 BMatP= 6.44D-12
 IDIUse=1 WtCom= 1.00D+00 WtEn= 0.00D+00
 Coeff-Com: -0.293D-05 0.144D-04 0.160D-03-0.423D-03 0.642D-03-0.491D-03
 Coeff-Com: -0.477D-03 0.227D-01-0.262D+00 0.124D+01
 Coeff:     -0.293D-05 0.144D-04 0.160D-03-0.423D-03 0.642D-03-0.491D-03
 Coeff:     -0.477D-03 0.227D-01-0.262D+00 0.124D+01
 Gap=     0.661 Goal=   None    Shift=    0.000
 Gap=     0.729 Goal=   None    Shift=    0.000
 RMSDP=4.55D-08 MaxDP=2.17D-07 DE=-4.60D-12 OVMax= 2.54D-07

 Cycle  11  Pass 1  IDiag  1:
 E= -38.9115805425063     Delta-E=        0.000000000000 Rises=F Damp=F
 DIIS: error= 1.75D-08 at cycle  11 NSaved=  11.
 NSaved=11 IEnMin=11 EnMin= -38.9115805425063     IErMin=11 ErrMin= 1.75D-08
 ErrMax= 1.75D-08 EMaxC= 1.00D-01 BMatC= 8.58D-15 BMatP= 1.49D-13
 IDIUse=1 WtCom= 1.00D+00 WtEn= 0.00D+00
 Coeff-Com:  0.189D-06-0.417D-07-0.853D-05 0.276D-04-0.309D-04-0.204D-03
 Coeff-Com:  0.885D-03-0.971D-02 0.102D+00-0.601D+00 0.151D+01
 Coeff:      0.189D-06-0.417D-07-0.853D-05 0.276D-04-0.309D-04-0.204D-03
 Coeff:      0.885D-03-0.971D-02 0.102D+00-0.601D+00 0.151D+01
 Gap=     0.661 Goal=   None    Shift=    0.000
 Gap=     0.729 Goal=   None    Shift=    0.000
 RMSDP=1.44D-08 MaxDP=6.16D-08 DE=-1.56D-13 OVMax= 7.86D-08

 Cycle  12  Pass 1  IDiag  1:
 E= -38.9115805425063     Delta-E=        0.000000000000 Rises=F Damp=F
 DIIS: error= 3.06D-09 at cycle  12 NSaved=  12.
 NSaved=12 IEnMin=11 EnMin= -38.9115805425063     IErMin=12 ErrMin= 3.06D-09
 ErrMax= 3.06D-09 EMaxC= 1.00D-01 BMatC= 1.27D-16 BMatP= 8.58D-15
 IDIUse=1 WtCom= 1.00D+00 WtEn= 0.00D+00
 Coeff-Com: -0.386D-07-0.957D-07 0.165D-05-0.566D-05 0.525D-05 0.632D-04
 Coeff-Com: -0.255D-03 0.273D-02-0.289D-01 0.178D+00-0.518D+00 0.137D+01
 Coeff:     -0.386D-07-0.957D-07 0.165D-05-0.566D-05 0.525D-05 0.632D-04
 Coeff:     -0.255D-03 0.273D-02-0.289D-01 0.178D+00-0.518D+00 0.137D+01
 Gap=     0.661 Goal=   None    Shift=    0.000
 Gap=     0.729 Goal=   None    Shift=    0.000
 RMSDP=1.07D-09 MaxDP=1.10D-08 DE= 1.42D-14 OVMax= 3.78D-09

 SCF Done:  E(UHF) =  -38.9115805425     A.U. after   12 cycles
             Convg  =    0.1075D-08             -V/T =  1.9989
 <Sx>= 0.0000 <Sy>= 0.0000 <Sz>= 1.0000 <S**2>= 2.0173 S= 1.0057
 <L.S>= 0.000000000000E+00
 KE= 3.895523762009D+01 PE=-1.028615326042D+02 EE= 1.882995157488D+01
 Annihilation of the first spin contaminant:
 S**2 before annihilation     2.0173,   after     2.0001
 Leave Link  502 at Wed May 26 14:16:34 2021, MaxMem=   33554432 cpu:       0.1
 (Enter /home/emil/gauss09/g09/l601.exe)
 Copying SCF densities to generalized density rwf, IOpCl= 1 IROHF=0.

 **********************************************************************

            Population analysis using the SCF density.

 **********************************************************************

 Orbital symmetries:
 Alpha Orbitals:
       Occupied  (A1) (A1) (B2) (A1) (B1)
       Virtual   (A1) (B2) (A1) (B1) (B2) (A1) (A1) (B2)
 Beta  Orbitals:
       Occupied  (A1) (A1) (B2)
       Virtual   (A1) (B1) (A1) (B2) (A1) (B2) (B1) (A1) (A1) (B2)
 The electronic state is 3-B1.
 Alpha  occ. eigenvalues --  -11.26155  -0.95059  -0.61743  -0.44710  -0.40858
 Alpha virt. eigenvalues --    0.25203   0.32573   0.72249   0.72939   0.79666
 Alpha virt. eigenvalues --    0.83137   1.18477   1.26400
  Beta  occ. eigenvalues --  -11.21167  -0.77039  -0.57908
  Beta virt. eigenvalues --    0.14950   0.17384   0.28425   0.36116   0.82712
  Beta virt. eigenvalues --    0.82989   0.89882   0.93483   1.22264   1.29209
          Condensed to atoms (all electrons):
              1          2          3
     1  C    5.602722   0.351114   0.351114
     2  H    0.351114   0.524524  -0.028113
     3  H    0.351114  -0.028113   0.524524
 Mulliken atomic charges:
              1
     1  C   -0.304951
     2  H    0.152475
     3  H    0.152475
 Sum of Mulliken atomic charges =   0.00000
 Mulliken charges with hydrogens summed into heavy atoms:
              1
     1  C    0.000000
 Sum of Mulliken charges with hydrogens summed into heavy atoms =   0.00000
          Atomic-Atomic Spin Densities.
              1          2          3
     1  C    2.379045  -0.040122  -0.040122
     2  H   -0.040122  -0.119573   0.010295
     3  H   -0.040122   0.010295  -0.119573
 Mulliken atomic spin densities:
              1
     1  C    2.298800
     2  H   -0.149400
     3  H   -0.149400
 Sum of Mulliken atomic spin densities =   2.00000
 Electronic spatial extent (au):  <R**2>=             23.8089
 Charge=              0.0000 electrons
 Dipole moment (field-independent basis, Debye):
    X=              0.0000    Y=              0.0000    Z=             -0.5926  Tot=              0.5926
 Quadrupole moment (field-independent basis, Debye-Ang):
   XX=             -7.9106   YY=             -5.9079   ZZ=             -7.4961
   XY=              0.0000   XZ=              0.0000   YZ=              0.0000
 Traceless Quadrupole moment (field-independent basis, Debye-Ang):
   XX=             -0.8057   YY=              1.1969   ZZ=             -0.3912
   XY=              0.0000   XZ=              0.0000   YZ=              0.0000
 Octapole moment (field-independent basis, Debye-Ang**2):
  XXX=              0.0000  YYY=              0.0000  ZZZ=             -0.7711  XYY=              0.0000
  XXY=              0.0000  XXZ=             -0.2652  XZZ=              0.0000  YZZ=              0.0000
  YYZ=             -0.8035  XYZ=              0.0000
 Hexadecapole moment (field-independent basis, Debye-Ang**3):
 XXXX=             -8.3634 YYYY=            -13.3637 ZZZZ=             -9.1637 XXXY=              0.0000
 XXXZ=              0.0000 YYYX=              0.0000 YYYZ=              0.0000 ZZZX=              0.0000
 ZZZY=              0.0000 XXYY=             -4.0464 XXZZ=             -2.9310 YYZZ=             -3.8945
 XXYZ=              0.0000 YYXZ=              0.0000 ZZXY=              0.0000
 N-N= 6.164762866706D+00 E-N=-1.486341796494D+02  KE= 5.713029137648D+01
 Symmetry A1   KE= 5.306814598730D+01
 Symmetry A2   KE= 0.000000000000D+00
 Symmetry B1   KE= 1.175718044559D+00
 Symmetry B2   KE= 2.886427344627D+00
                          Isotropic Fermi Contact Couplings
        Atom                 a.u.       MegaHertz       Gauss      10(-4) cm-1
     1  C(13)              0.66497     373.77919     133.37370     124.67932
     2  H(1)              -0.03643     -81.41522     -29.05097     -27.15719
     3  H(1)              -0.03643     -81.41522     -29.05097     -27.15719
 --------------------------------------------------------
       Center         ----  Spin Dipole Couplings  ----
                      3XX-RR        3YY-RR        3ZZ-RR
 --------------------------------------------------------
     1   Atom        0.615660     -0.946849      0.331190
     2   Atom       -0.075675      0.126450     -0.050775
     3   Atom       -0.075675      0.126450     -0.050775
 --------------------------------------------------------
                        XY            XZ            YZ
 --------------------------------------------------------
     1   Atom        0.000000      0.000000      0.000000
     2   Atom        0.000000      0.000000     -0.100278
     3   Atom        0.000000      0.000000      0.100278
 --------------------------------------------------------


 ---------------------------------------------------------------------------------
              Anisotropic Spin Dipole Couplings in Principal Axis System
 ---------------------------------------------------------------------------------

       Atom             a.u.   MegaHertz   Gauss  10(-4) cm-1        Axes

              Baa    -0.9468  -127.058   -45.337   -42.382  0.0000  1.0000  0.0000
     1 C(13)  Bbb     0.3312    44.443    15.858    14.824  0.0000  0.0000  1.0000
              Bcc     0.6157    82.616    29.479    27.558  1.0000  0.0000  0.0000
 
              Baa    -0.0960   -51.212   -18.274   -17.082  0.0000  0.4110  0.9116
     2 H(1)   Bbb    -0.0757   -40.377   -14.407   -13.468  1.0000  0.0000  0.0000
              Bcc     0.1717    91.588    32.681    30.551  0.0000  0.9116 -0.4110
 
              Baa    -0.0960   -51.212   -18.274   -17.082  0.0000 -0.4110  0.9116
     3 H(1)   Bbb    -0.0757   -40.377   -14.407   -13.468  1.0000  0.0000  0.0000
              Bcc     0.1717    91.588    32.681    30.551  0.0000  0.9116  0.4110
 

 ---------------------------------------------------------------------------------

 No NMR shielding tensors so no spin-rotation constants.
 Leave Link  601 at Wed May 26 14:16:34 2021, MaxMem=   33554432 cpu:       0.2
 (Enter /home/emil/gauss09/g09/l9999.exe)
 1\1\GINC-KONG-SRV\SP\UHF\6-31G\C1H2(3)\EMIL\26-May-2021\0\\#P HF/6-31G
 \\CH2_3B1\\0,3\C\H,1,1.07672244\H,1,1.07672244,2,133.83747879\\Version
 =EM64L-G09RevB.01\State=3-B1\HF=-38.9115805\S2=2.017274\S2-1=0.\S2A=2.
 0001\RMSD=1.075e-09\Dipole=0.2144828,0.,0.0914018\Quadrupole=-0.109388
 4,-0.599033,0.7084214,0.,-0.4258441,0.\PG=C02V [C2(C1),SGV(H2)]\\@


 Not by the face shall a man be known, but by the mask.
                               -- Karen Blixen
 Job cpu time:  0 days  0 hours  0 minutes  0.9 seconds.
 File lengths (MBytes):  RWF=      5 Int=      0 D2E=      0 Chk=      1 Scr=      1
 Normal termination of Gaussian 09 at Wed May 26 14:16:34 2021.
