 Entering Gaussian System, Link 0=g09
 Input=CH2_1A1.com
 Output=CH2_1A1.log
 Initial command:
 /home/emil/gauss09/g09/l1.exe /home/emil/scratch/g09/Gau-9927.inp -scrdir=/home/emil/scratch/g09/
 Entering Link 1 = /home/emil/gauss09/g09/l1.exe PID=      9929.
  
 Copyright (c) 1988,1990,1992,1993,1995,1998,2003,2009,2010,
            Gaussian, Inc.  All Rights Reserved.
  
 This is part of the Gaussian(R) 09 program.  It is based on
 the Gaussian(R) 03 system (copyright 2003, Gaussian, Inc.),
 the Gaussian(R) 98 system (copyright 1998, Gaussian, Inc.),
 the Gaussian(R) 94 system (copyright 1995, Gaussian, Inc.),
 the Gaussian 92(TM) system (copyright 1992, Gaussian, Inc.),
 the Gaussian 90(TM) system (copyright 1990, Gaussian, Inc.),
 the Gaussian 88(TM) system (copyright 1988, Gaussian, Inc.),
 the Gaussian 86(TM) system (copyright 1986, Carnegie Mellon
 University), and the Gaussian 82(TM) system (copyright 1983,
 Carnegie Mellon University). Gaussian is a federally registered
 trademark of Gaussian, Inc.
  
 This software contains proprietary and confidential information,
 including trade secrets, belonging to Gaussian, Inc.
  
 This software is provided under written license and may be
 used, copied, transmitted, or stored only in accord with that
 written license.
  
 The following legend is applicable only to US Government
 contracts under FAR:
  
                    RESTRICTED RIGHTS LEGEND
  
 Use, reproduction and disclosure by the US Government is
 subject to restrictions as set forth in subparagraphs (a)
 and (c) of the Commercial Computer Software - Restricted
 Rights clause in FAR 52.227-19.
  
 Gaussian, Inc.
 340 Quinnipiac St., Bldg. 40, Wallingford CT 06492
  
  
 ---------------------------------------------------------------
 Warning -- This program may not be used in any manner that
 competes with the business of Gaussian, Inc. or will provide
 assistance to any competitor of Gaussian, Inc.  The licensee
 of this program is prohibited from giving any competitor of
 Gaussian, Inc. access to this program.  By using this program,
 the user acknowledges that Gaussian, Inc. is engaged in the
 business of creating and licensing software in the field of
 computational chemistry and represents and warrants to the
 licensee that it is not a competitor of Gaussian, Inc. and that
 it will not use this program in any manner prohibited above.
 ---------------------------------------------------------------
  

 Cite this work as:
 Gaussian 09, Revision B.01,
 M. J. Frisch, G. W. Trucks, H. B. Schlegel, G. E. Scuseria, 
 M. A. Robb, J. R. Cheeseman, G. Scalmani, V. Barone, B. Mennucci, 
 G. A. Petersson, H. Nakatsuji, M. Caricato, X. Li, H. P. Hratchian, 
 A. F. Izmaylov, J. Bloino, G. Zheng, J. L. Sonnenberg, M. Hada, 
 M. Ehara, K. Toyota, R. Fukuda, J. Hasegawa, M. Ishida, T. Nakajima, 
 Y. Honda, O. Kitao, H. Nakai, T. Vreven, J. A. Montgomery, Jr., 
 J. E. Peralta, F. Ogliaro, M. Bearpark, J. J. Heyd, E. Brothers, 
 K. N. Kudin, V. N. Staroverov, T. Keith, R. Kobayashi, J. Normand, 
 K. Raghavachari, A. Rendell, J. C. Burant, S. S. Iyengar, J. Tomasi, 
 M. Cossi, N. Rega, J. M. Millam, M. Klene, J. E. Knox, J. B. Cross, 
 V. Bakken, C. Adamo, J. Jaramillo, R. Gomperts, R. E. Stratmann, 
 O. Yazyev, A. J. Austin, R. Cammi, C. Pomelli, J. W. Ochterski, 
 R. L. Martin, K. Morokuma, V. G. Zakrzewski, G. A. Voth, 
 P. Salvador, J. J. Dannenberg, S. Dapprich, A. D. Daniels, 
 O. Farkas, J. B. Foresman, J. V. Ortiz, J. Cioslowski, 
 and D. J. Fox, Gaussian, Inc., Wallingford CT, 2010.
 
 ******************************************
 Gaussian 09:  EM64L-G09RevB.01 12-Aug-2010
                26-May-2021 
 ******************************************
 -----------
 #P HF/6-31G
 -----------
 1/38=1/1;
 2/12=2,17=6,18=5,40=1/2;
 3/5=1,6=6,11=9,16=1,25=1,30=1/1,2,3;
 4//1;
 5/5=2,38=5/2;
 6/7=2,8=2,9=2,10=2,28=1/1;
 99/5=1,9=1/99;
 Leave Link    1 at Wed May 26 14:14:41 2021, MaxMem=          0 cpu:       0.0
 (Enter /home/emil/gauss09/g09/l101.exe)
 -------
 CH2_1A1
 -------
 Symbolic Z-matrix:
 Charge =  0 Multiplicity = 1
 C
 H                    1    CH
 H                    1    CH       2    HCH
       Variables:
  CH                    1.10771                  
  HCH                 101.93064                  
 
 NAtoms=      3 NQM=      3 NQMF=      0 NMic=      0 NMicF=      0 NTot=      3.
                    Isotopes and Nuclear Properties:
 (Nuclear quadrupole moments (NQMom) in fm**2, nuclear magnetic moments (NMagM)
  in nuclear magnetons)

  Atom         1           2           3
 IAtWgt=          12           1           1
 AtmWgt=  12.0000000   1.0078250   1.0078250
 NucSpn=           0           1           1
 AtZEff=   0.0000000   0.0000000   0.0000000
 NQMom=    0.0000000   0.0000000   0.0000000
 NMagM=    0.0000000   2.7928460   2.7928460
 Leave Link  101 at Wed May 26 14:14:41 2021, MaxMem=   33554432 cpu:       0.1
 (Enter /home/emil/gauss09/g09/l202.exe)
                          Input orientation:                          
 ---------------------------------------------------------------------
 Center     Atomic      Atomic             Coordinates (Angstroms)
 Number     Number       Type             X           Y           Z
 ---------------------------------------------------------------------
      1          6           0        0.000000    0.000000    0.000000
      2          1           0        0.000000    0.000000    1.107706
      3          1           0        1.083778    0.000000   -0.228993
 ---------------------------------------------------------------------
                    Distance matrix (angstroms):
                    1          2          3
     1  C    0.000000
     2  H    1.107706   0.000000
     3  H    1.107706   1.720854   0.000000
 Stoichiometry    CH2
 Framework group  C2V[C2(C),SGV(H2)]
 Deg. of freedom     2
 Full point group                 C2V     NOp   4
 Largest Abelian subgroup         C2V     NOp   4
 Largest concise Abelian subgroup C2      NOp   2
                         Standard orientation:                         
 ---------------------------------------------------------------------
 Center     Atomic      Atomic             Coordinates (Angstroms)
 Number     Number       Type             X           Y           Z
 ---------------------------------------------------------------------
      1          6           0        0.000000    0.000000    0.174406
      2          1           0        0.000000    0.860427   -0.523217
      3          1           0        0.000000   -0.860427   -0.523217
 ---------------------------------------------------------------------
 Rotational constants (GHZ):    601.7176314    338.6678487    216.7009381
 Leave Link  202 at Wed May 26 14:14:41 2021, MaxMem=   33554432 cpu:       0.0
 (Enter /home/emil/gauss09/g09/l301.exe)
 Standard basis: 6-31G (6D, 7F)
 Ernie: Thresh=  0.10000D-02 Tol=  0.10000D-05 Strict=F.
 There are     7 symmetry adapted basis functions of A1  symmetry.
 There are     0 symmetry adapted basis functions of A2  symmetry.
 There are     2 symmetry adapted basis functions of B1  symmetry.
 There are     4 symmetry adapted basis functions of B2  symmetry.
 Integral buffers will be    131072 words long.
 Raffenetti 1 integral format.
 Two-electron integral symmetry is turned on.
    13 basis functions,    30 primitive gaussians,    13 cartesian basis functions
     4 alpha electrons        4 beta electrons
       nuclear repulsion energy         6.0401915351 Hartrees.
 IExCor=    0 DFT=F Ex=HF Corr=None ExCW=0 ScaHFX=  1.000000
 ScaDFX=  1.000000  1.000000  1.000000  1.000000 ScalE2=  1.000000  1.000000
 IRadAn=      0 IRanWt=     -1 IRanGd=            0 ICorTp=0
 NAtoms=    3 NActive=    3 NUniq=    2 SFac= 2.25D+00 NAtFMM=   50 NAOKFM=F Big=F
 Leave Link  301 at Wed May 26 14:14:41 2021, MaxMem=   33554432 cpu:       0.0
 (Enter /home/emil/gauss09/g09/l302.exe)
 NPDir=0 NMtPBC=     1 NCelOv=     1 NCel=       1 NClECP=     1 NCelD=      1
         NCelK=      1 NCelE2=     1 NClLst=     1 CellRange=     0.0.
 One-electron integrals computed using PRISM.
 One-electron integral symmetry used in STVInt
 NBasis=    13 RedAO= T  NBF=     7     0     2     4
 NBsUse=    13 1.00D-06 NBFU=     7     0     2     4
 Leave Link  302 at Wed May 26 14:14:41 2021, MaxMem=   33554432 cpu:       0.1
 (Enter /home/emil/gauss09/g09/l303.exe)
 DipDrv:  MaxL=1.
 Leave Link  303 at Wed May 26 14:14:41 2021, MaxMem=   33554432 cpu:       0.0
 (Enter /home/emil/gauss09/g09/l401.exe)
 Harris functional with IExCor=  205 diagonalized for initial guess.
 ExpMin= 1.61D-01 ExpMax= 3.05D+03 ExpMxC= 4.57D+02 IAcc=1 IRadAn=         1 AccDes= 0.00D+00
 HarFok:  IExCor=  205 AccDes= 0.00D+00 IRadAn=         1 IDoV= 1
 ScaDFX=  1.000000  1.000000  1.000000  1.000000
 FoFCou: FMM=F IPFlag=           0 FMFlag=      100000 FMFlg1=           0
         NFxFlg=           0 DoJE=T BraDBF=F KetDBF=T FulRan=T
         Omega=  0.000000  0.000000  1.000000  0.000000  0.000000 ICntrl=     500 IOpCl=  0
         NMat0=    1 NMatS0=    1 NMatT0=    0 NMatD0=    1 NMtDS0=    0 NMtDT0=    0
         I1Cent=           4 NGrid=           0.
 Petite list used in FoFCou.
 Harris En= -38.8924011168545    
 Initial guess orbital symmetries:
       Occupied  (A1) (A1) (B2) (A1)
       Virtual   (B1) (A1) (B2) (B1) (B2) (A1) (A1) (B2) (A1)
 The electronic state of the initial guess is 1-A1.
 Leave Link  401 at Wed May 26 14:14:41 2021, MaxMem=   33554432 cpu:       0.2
 (Enter /home/emil/gauss09/g09/l502.exe)
 Closed shell SCF:
 Requested convergence on RMS density matrix=1.00D-08 within 128 cycles.
 Requested convergence on MAX density matrix=1.00D-06.
 Requested convergence on             energy=1.00D-06.
 No special actions if energy rises.
 Using DIIS extrapolation, IDIIS=  1040.
 Integral symmetry usage will be decided dynamically.
 Keep R1 ints in memory in canonical form, NReq=823981.
 IEnd=       19781 IEndB=       19781 NGot=    33554432 MDV=    33547540
 LenX=    33547540 LenY=    33546658
 Symmetry not used in FoFDir.
 MinBra= 0 MaxBra= 1 Meth= 1.
 IRaf=       0 NMat=   1 IRICut=       1 DoRegI=T DoRafI=F ISym2E= 0 JSym2E=0.

 Cycle   1  Pass 1  IDiag  1:
 E= -38.8330763629181    
 DIIS: error= 3.83D-02 at cycle   1 NSaved=   1.
 NSaved= 1 IEnMin= 1 EnMin= -38.8330763629181     IErMin= 1 ErrMin= 3.83D-02
 ErrMax= 3.83D-02 EMaxC= 1.00D-01 BMatC= 2.12D-02 BMatP= 2.12D-02
 IDIUse=3 WtCom= 6.17D-01 WtEn= 3.83D-01
 Coeff-Com:  0.100D+01
 Coeff-En:   0.100D+01
 Coeff:      0.100D+01
 Gap=     0.481 Goal=   None    Shift=    0.000
 GapD=    0.481 DampG=2.000 DampE=0.500 DampFc=1.0000 IDamp=-1.
 RMSDP=1.20D-02 MaxDP=6.78D-02              OVMax= 7.06D-02

 Cycle   2  Pass 1  IDiag  1:
 E= -38.8519394218907     Delta-E=       -0.018863058973 Rises=F Damp=F
 DIIS: error= 7.85D-03 at cycle   2 NSaved=   2.
 NSaved= 2 IEnMin= 2 EnMin= -38.8519394218907     IErMin= 2 ErrMin= 7.85D-03
 ErrMax= 7.85D-03 EMaxC= 1.00D-01 BMatC= 1.05D-03 BMatP= 2.12D-02
 IDIUse=3 WtCom= 9.21D-01 WtEn= 7.85D-02
 Coeff-Com:  0.107D+00 0.893D+00
 Coeff-En:   0.000D+00 0.100D+01
 Coeff:      0.989D-01 0.901D+00
 Gap=     0.450 Goal=   None    Shift=    0.000
 RMSDP=3.37D-03 MaxDP=2.80D-02 DE=-1.89D-02 OVMax= 7.00D-03

 Cycle   3  Pass 1  IDiag  1:
 E= -38.8529586026617     Delta-E=       -0.001019180771 Rises=F Damp=F
 DIIS: error= 1.58D-03 at cycle   3 NSaved=   3.
 NSaved= 3 IEnMin= 3 EnMin= -38.8529586026617     IErMin= 3 ErrMin= 1.58D-03
 ErrMax= 1.58D-03 EMaxC= 1.00D-01 BMatC= 1.58D-05 BMatP= 1.05D-03
 IDIUse=3 WtCom= 9.84D-01 WtEn= 1.58D-02
 Coeff-Com: -0.161D-01 0.214D-01 0.995D+00
 Coeff-En:   0.000D+00 0.000D+00 0.100D+01
 Coeff:     -0.158D-01 0.211D-01 0.995D+00
 Gap=     0.449 Goal=   None    Shift=    0.000
 RMSDP=4.98D-04 MaxDP=2.21D-03 DE=-1.02D-03 OVMax= 3.02D-03

 Cycle   4  Pass 1  IDiag  1:
 E= -38.8529913193444     Delta-E=       -0.000032716683 Rises=F Damp=F
 DIIS: error= 2.45D-04 at cycle   4 NSaved=   4.
 NSaved= 4 IEnMin= 4 EnMin= -38.8529913193444     IErMin= 4 ErrMin= 2.45D-04
 ErrMax= 2.45D-04 EMaxC= 1.00D-01 BMatC= 9.22D-07 BMatP= 1.58D-05
 IDIUse=3 WtCom= 9.98D-01 WtEn= 2.45D-03
 Coeff-Com:  0.476D-02-0.286D-01-0.346D+00 0.137D+01
 Coeff-En:   0.000D+00 0.000D+00 0.000D+00 0.100D+01
 Coeff:      0.475D-02-0.285D-01-0.346D+00 0.137D+01
 Gap=     0.449 Goal=   None    Shift=    0.000
 RMSDP=1.93D-04 MaxDP=1.03D-03 DE=-3.27D-05 OVMax= 7.12D-04

 Cycle   5  Pass 1  IDiag  1:
 E= -38.8529935470694     Delta-E=       -0.000002227725 Rises=F Damp=F
 DIIS: error= 3.48D-05 at cycle   5 NSaved=   5.
 NSaved= 5 IEnMin= 5 EnMin= -38.8529935470694     IErMin= 5 ErrMin= 3.48D-05
 ErrMax= 3.48D-05 EMaxC= 1.00D-01 BMatC= 7.73D-09 BMatP= 9.22D-07
 IDIUse=1 WtCom= 1.00D+00 WtEn= 0.00D+00
 Coeff-Com: -0.175D-02 0.111D-01 0.129D+00-0.550D+00 0.141D+01
 Coeff:     -0.175D-02 0.111D-01 0.129D+00-0.550D+00 0.141D+01
 Gap=     0.449 Goal=   None    Shift=    0.000
 RMSDP=4.30D-05 MaxDP=2.49D-04 DE=-2.23D-06 OVMax= 1.55D-04

 Cycle   6  Pass 1  IDiag  1:
 E= -38.8529935779737     Delta-E=       -0.000000030904 Rises=F Damp=F
 DIIS: error= 4.49D-06 at cycle   6 NSaved=   6.
 NSaved= 6 IEnMin= 6 EnMin= -38.8529935779737     IErMin= 6 ErrMin= 4.49D-06
 ErrMax= 4.49D-06 EMaxC= 1.00D-01 BMatC= 1.75D-10 BMatP= 7.73D-09
 IDIUse=1 WtCom= 1.00D+00 WtEn= 0.00D+00
 Coeff-Com:  0.644D-03-0.410D-02-0.471D-01 0.203D+00-0.573D+00 0.142D+01
 Coeff:      0.644D-03-0.410D-02-0.471D-01 0.203D+00-0.573D+00 0.142D+01
 Gap=     0.449 Goal=   None    Shift=    0.000
 RMSDP=5.97D-06 MaxDP=3.01D-05 DE=-3.09D-08 OVMax= 2.50D-05

 Cycle   7  Pass 1  IDiag  1:
 E= -38.8529935787841     Delta-E=       -0.000000000810 Rises=F Damp=F
 DIIS: error= 1.19D-06 at cycle   7 NSaved=   7.
 NSaved= 7 IEnMin= 7 EnMin= -38.8529935787841     IErMin= 7 ErrMin= 1.19D-06
 ErrMax= 1.19D-06 EMaxC= 1.00D-01 BMatC= 9.88D-12 BMatP= 1.75D-10
 IDIUse=1 WtCom= 1.00D+00 WtEn= 0.00D+00
 Coeff-Com: -0.104D-03 0.652D-03 0.755D-02-0.331D-01 0.109D+00-0.498D+00
 Coeff-Com:  0.141D+01
 Coeff:     -0.104D-03 0.652D-03 0.755D-02-0.331D-01 0.109D+00-0.498D+00
 Coeff:      0.141D+01
 Gap=     0.449 Goal=   None    Shift=    0.000
 RMSDP=9.80D-07 MaxDP=4.02D-06 DE=-8.10D-10 OVMax= 5.04D-06

 Cycle   8  Pass 1  IDiag  1:
 E= -38.8529935788211     Delta-E=       -0.000000000037 Rises=F Damp=F
 DIIS: error= 7.06D-08 at cycle   8 NSaved=   8.
 NSaved= 8 IEnMin= 8 EnMin= -38.8529935788211     IErMin= 8 ErrMin= 7.06D-08
 ErrMax= 7.06D-08 EMaxC= 1.00D-01 BMatC= 7.39D-14 BMatP= 9.88D-12
 IDIUse=1 WtCom= 1.00D+00 WtEn= 0.00D+00
 Coeff-Com:  0.189D-04-0.117D-03-0.136D-02 0.597D-02-0.210D-01 0.110D+00
 Coeff-Com: -0.357D+00 0.126D+01
 Coeff:      0.189D-04-0.117D-03-0.136D-02 0.597D-02-0.210D-01 0.110D+00
 Coeff:     -0.357D+00 0.126D+01
 Gap=     0.449 Goal=   None    Shift=    0.000
 RMSDP=5.68D-08 MaxDP=3.04D-07 DE=-3.69D-11 OVMax= 1.97D-07

 Cycle   9  Pass 1  IDiag  1:
 E= -38.8529935788213     Delta-E=        0.000000000000 Rises=F Damp=F
 DIIS: error= 7.75D-09 at cycle   9 NSaved=   9.
 NSaved= 9 IEnMin= 9 EnMin= -38.8529935788213     IErMin= 9 ErrMin= 7.75D-09
 ErrMax= 7.75D-09 EMaxC= 1.00D-01 BMatC= 7.65D-16 BMatP= 7.39D-14
 IDIUse=1 WtCom= 1.00D+00 WtEn= 0.00D+00
 Coeff-Com: -0.242D-05 0.145D-04 0.171D-03-0.758D-03 0.291D-02-0.171D-01
 Coeff-Com:  0.576D-01-0.253D+00 0.121D+01
 Coeff:     -0.242D-05 0.145D-04 0.171D-03-0.758D-03 0.291D-02-0.171D-01
 Coeff:      0.576D-01-0.253D+00 0.121D+01
 Gap=     0.449 Goal=   None    Shift=    0.000
 RMSDP=4.14D-09 MaxDP=2.03D-08 DE=-1.78D-13 OVMax= 1.42D-08

 SCF Done:  E(RHF) =  -38.8529935788     A.U. after    9 cycles
             Convg  =    0.4145D-08             -V/T =  1.9986
 KE= 3.890887809031D+01 PE=-1.024268333761D+02 EE= 1.862477017188D+01
 Leave Link  502 at Wed May 26 14:14:42 2021, MaxMem=   33554432 cpu:       0.1
 (Enter /home/emil/gauss09/g09/l601.exe)
 Copying SCF densities to generalized density rwf, IOpCl= 0 IROHF=0.

 **********************************************************************

            Population analysis using the SCF density.

 **********************************************************************

 Orbital symmetries:
       Occupied  (A1) (A1) (B2) (A1)
       Virtual   (B1) (A1) (B2) (B2) (A1) (B1) (A1) (B2) (A1)
 The electronic state is 1-A1.
 Alpha  occ. eigenvalues --  -11.29199  -0.90162  -0.56077  -0.37983
 Alpha virt. eigenvalues --    0.06908   0.25420   0.31160   0.74200   0.79531
 Alpha virt. eigenvalues --    0.80568   0.99359   1.15538   1.17259
          Condensed to atoms (all electrons):
              1          2          3
     1  C    5.592654   0.306600   0.306600
     2  H    0.306600   0.655535  -0.065062
     3  H    0.306600  -0.065062   0.655535
 Mulliken atomic charges:
              1
     1  C   -0.205854
     2  H    0.102927
     3  H    0.102927
 Sum of Mulliken atomic charges =   0.00000
 Mulliken charges with hydrogens summed into heavy atoms:
              1
     1  C    0.000000
 Sum of Mulliken charges with hydrogens summed into heavy atoms =   0.00000
 Electronic spatial extent (au):  <R**2>=             24.8517
 Charge=              0.0000 electrons
 Dipole moment (field-independent basis, Debye):
    X=              0.0000    Y=              0.0000    Z=             -2.2225  Tot=              2.2225
 Quadrupole moment (field-independent basis, Debye-Ang):
   XX=             -6.1223   YY=             -7.2298   ZZ=             -9.4559
   XY=              0.0000   XZ=              0.0000   YZ=              0.0000
 Traceless Quadrupole moment (field-independent basis, Debye-Ang):
   XX=              1.4803   YY=              0.3729   ZZ=             -1.8532
   XY=              0.0000   XZ=              0.0000   YZ=              0.0000
 Octapole moment (field-independent basis, Debye-Ang**2):
  XXX=              0.0000  YYY=              0.0000  ZZZ=             -3.2936  XYY=              0.0000
  XXY=              0.0000  XXZ=             -0.4984  XZZ=              0.0000  YZZ=              0.0000
  YYZ=             -0.9797  XYZ=              0.0000
 Hexadecapole moment (field-independent basis, Debye-Ang**3):
 XXXX=             -5.1226 YYYY=            -14.5443 ZZZZ=            -15.5012 XXXY=              0.0000
 XXXZ=              0.0000 YYYX=              0.0000 YYYZ=              0.0000 ZZZX=              0.0000
 ZZZY=              0.0000 XXYY=             -3.4042 XXZZ=             -3.3832 YYZZ=             -4.7686
 XXYZ=              0.0000 YYXZ=              0.0000 ZZXY=              0.0000
 N-N= 6.040191535051D+00 E-N=-1.024268333835D+02  KE= 3.890887809031D+01
 Symmetry A1   KE= 3.697404962770D+01
 Symmetry A2   KE= 0.000000000000D+00
 Symmetry B1   KE= 7.347235796364D-33
 Symmetry B2   KE= 1.934828462616D+00
 No NMR shielding tensors so no spin-rotation constants.
 Leave Link  601 at Wed May 26 14:14:42 2021, MaxMem=   33554432 cpu:       0.2
 (Enter /home/emil/gauss09/g09/l9999.exe)
 1\1\GINC-KONG-SRV\SP\RHF\6-31G\C1H2\EMIL\26-May-2021\0\\#P HF/6-31G\\C
 H2_1A1\\0,1\C\H,1,1.10770584\H,1,1.10770584,2,101.93064123\\Version=EM
 64L-G09RevB.01\State=1-A1\HF=-38.8529936\RMSD=4.145e-09\Dipole=0.67921
 18,0.,0.5506959\Quadrupole=-0.7213686,1.10059,-0.3792213,0.,-0.8096564
 ,0.\PG=C02V [C2(C1),SGV(H2)]\\@


 GOD GAVE US TWO ENDS... ONE TO SIT ON...    
 AND THE OTHER TO THINK WITH...              
 YOUR SUCCESS DEPENDS UPON WHICH END YOU     
 USE THE MOST...                             
                                             
 IT'S A CASE OF HEADS YOU WIN TAILS YOU LOSE.
          SOURCE UNKNOWN(IT'S JUST AS WELL.) 
 Job cpu time:  0 days  0 hours  0 minutes  0.9 seconds.
 File lengths (MBytes):  RWF=      5 Int=      0 D2E=      0 Chk=      1 Scr=      1
 Normal termination of Gaussian 09 at Wed May 26 14:14:42 2021.
