 Entering Gaussian System, Link 0=g09
 Input=CH2CH.com
 Output=CH2CH.log
 Initial command:
 /home/emil/gauss09/g09/l1.exe /home/emil/scratch/g09/Gau-9947.inp -scrdir=/home/emil/scratch/g09/
 Entering Link 1 = /home/emil/gauss09/g09/l1.exe PID=      9949.
  
 Copyright (c) 1988,1990,1992,1993,1995,1998,2003,2009,2010,
            Gaussian, Inc.  All Rights Reserved.
  
 This is part of the Gaussian(R) 09 program.  It is based on
 the Gaussian(R) 03 system (copyright 2003, Gaussian, Inc.),
 the Gaussian(R) 98 system (copyright 1998, Gaussian, Inc.),
 the Gaussian(R) 94 system (copyright 1995, Gaussian, Inc.),
 the Gaussian 92(TM) system (copyright 1992, Gaussian, Inc.),
 the Gaussian 90(TM) system (copyright 1990, Gaussian, Inc.),
 the Gaussian 88(TM) system (copyright 1988, Gaussian, Inc.),
 the Gaussian 86(TM) system (copyright 1986, Carnegie Mellon
 University), and the Gaussian 82(TM) system (copyright 1983,
 Carnegie Mellon University). Gaussian is a federally registered
 trademark of Gaussian, Inc.
  
 This software contains proprietary and confidential information,
 including trade secrets, belonging to Gaussian, Inc.
  
 This software is provided under written license and may be
 used, copied, transmitted, or stored only in accord with that
 written license.
  
 The following legend is applicable only to US Government
 contracts under FAR:
  
                    RESTRICTED RIGHTS LEGEND
  
 Use, reproduction and disclosure by the US Government is
 subject to restrictions as set forth in subparagraphs (a)
 and (c) of the Commercial Computer Software - Restricted
 Rights clause in FAR 52.227-19.
  
 Gaussian, Inc.
 340 Quinnipiac St., Bldg. 40, Wallingford CT 06492
  
  
 ---------------------------------------------------------------
 Warning -- This program may not be used in any manner that
 competes with the business of Gaussian, Inc. or will provide
 assistance to any competitor of Gaussian, Inc.  The licensee
 of this program is prohibited from giving any competitor of
 Gaussian, Inc. access to this program.  By using this program,
 the user acknowledges that Gaussian, Inc. is engaged in the
 business of creating and licensing software in the field of
 computational chemistry and represents and warrants to the
 licensee that it is not a competitor of Gaussian, Inc. and that
 it will not use this program in any manner prohibited above.
 ---------------------------------------------------------------
  

 Cite this work as:
 Gaussian 09, Revision B.01,
 M. J. Frisch, G. W. Trucks, H. B. Schlegel, G. E. Scuseria, 
 M. A. Robb, J. R. Cheeseman, G. Scalmani, V. Barone, B. Mennucci, 
 G. A. Petersson, H. Nakatsuji, M. Caricato, X. Li, H. P. Hratchian, 
 A. F. Izmaylov, J. Bloino, G. Zheng, J. L. Sonnenberg, M. Hada, 
 M. Ehara, K. Toyota, R. Fukuda, J. Hasegawa, M. Ishida, T. Nakajima, 
 Y. Honda, O. Kitao, H. Nakai, T. Vreven, J. A. Montgomery, Jr., 
 J. E. Peralta, F. Ogliaro, M. Bearpark, J. J. Heyd, E. Brothers, 
 K. N. Kudin, V. N. Staroverov, T. Keith, R. Kobayashi, J. Normand, 
 K. Raghavachari, A. Rendell, J. C. Burant, S. S. Iyengar, J. Tomasi, 
 M. Cossi, N. Rega, J. M. Millam, M. Klene, J. E. Knox, J. B. Cross, 
 V. Bakken, C. Adamo, J. Jaramillo, R. Gomperts, R. E. Stratmann, 
 O. Yazyev, A. J. Austin, R. Cammi, C. Pomelli, J. W. Ochterski, 
 R. L. Martin, K. Morokuma, V. G. Zakrzewski, G. A. Voth, 
 P. Salvador, J. J. Dannenberg, S. Dapprich, A. D. Daniels, 
 O. Farkas, J. B. Foresman, J. V. Ortiz, J. Cioslowski, 
 and D. J. Fox, Gaussian, Inc., Wallingford CT, 2010.
 
 ******************************************
 Gaussian 09:  EM64L-G09RevB.01 12-Aug-2010
                26-May-2021 
 ******************************************
 -----------
 #P HF/6-31G
 -----------
 1/38=1/1;
 2/12=2,17=6,18=5,40=1/2;
 3/5=1,6=6,11=9,16=1,25=1,30=1/1,2,3;
 4//1;
 5/5=2,38=5/2;
 6/7=2,8=2,9=2,10=2,28=1/1;
 99/5=1,9=1/99;
 Leave Link    1 at Wed May 26 14:18:22 2021, MaxMem=          0 cpu:       0.0
 (Enter /home/emil/gauss09/g09/l101.exe)
 -----
 CH2CH
 -----
 Symbolic Z-matrix:
 Charge =  0 Multiplicity = 2
 C
 C                    1    RCC
 H                    1    RCH1     2    ACH1
 H                    1    RCH2     2    ACH2     3     180.     0
 H                    2    RCH3     1    ACH3     3     0.       0
       Variables:
  RCC                   1.31012                  
  RCH1                  1.08844                  
  RCH2                  1.08324                  
  RCH3                  1.07744                  
  ACH1                121.42274                  
  ACH2                121.97467                  
  ACH3                137.19218                  
 
 NAtoms=      5 NQM=      5 NQMF=      0 NMic=      0 NMicF=      0 NTot=      5.
                    Isotopes and Nuclear Properties:
 (Nuclear quadrupole moments (NQMom) in fm**2, nuclear magnetic moments (NMagM)
  in nuclear magnetons)

  Atom         1           2           3           4           5
 IAtWgt=          12          12           1           1           1
 AtmWgt=  12.0000000  12.0000000   1.0078250   1.0078250   1.0078250
 NucSpn=           0           0           1           1           1
 AtZEff=   0.0000000   0.0000000   0.0000000   0.0000000   0.0000000
 NQMom=    0.0000000   0.0000000   0.0000000   0.0000000   0.0000000
 NMagM=    0.0000000   0.0000000   2.7928460   2.7928460   2.7928460
 Leave Link  101 at Wed May 26 14:18:22 2021, MaxMem=   33554432 cpu:       0.1
 (Enter /home/emil/gauss09/g09/l202.exe)
                          Input orientation:                          
 ---------------------------------------------------------------------
 Center     Atomic      Atomic             Coordinates (Angstroms)
 Number     Number       Type             X           Y           Z
 ---------------------------------------------------------------------
      1          6           0        0.000000    0.000000    0.000000
      2          6           0        0.000000    0.000000    1.310119
      3          1           0        0.928811    0.000000   -0.567455
      4          1           0       -0.918895    0.000000   -0.573625
      5          1           0        0.732162    0.000000    2.100566
 ---------------------------------------------------------------------
                    Distance matrix (angstroms):
                    1          2          3          4          5
     1  C    0.000000
     2  C    1.310119   0.000000
     3  H    1.088437   2.094749   0.000000
     4  H    1.083242   2.095914   1.847717   0.000000
     5  H    2.224509   1.077436   2.675258   3.142815   0.000000
 Stoichiometry    C2H3(2)
 Framework group  CS[SG(C2H3)]
 Deg. of freedom     7
 Full point group                 CS      NOp   2
 Largest Abelian subgroup         CS      NOp   2
 Largest concise Abelian subgroup C1      NOp   1
                         Standard orientation:                         
 ---------------------------------------------------------------------
 Center     Atomic      Atomic             Coordinates (Angstroms)
 Number     Number       Type             X           Y           Z
 ---------------------------------------------------------------------
      1          6           0        0.049472   -0.588013    0.000000
      2          6           0        0.049472    0.722106    0.000000
      3          1           0       -0.879340   -1.155468    0.000000
      4          1           0        0.968367   -1.161638    0.000000
      5          1           0       -0.682690    1.512553    0.000000
 ---------------------------------------------------------------------
 Rotational constants (GHZ):    234.9984757     32.6400105     28.6593787
 Leave Link  202 at Wed May 26 14:18:22 2021, MaxMem=   33554432 cpu:       0.0
 (Enter /home/emil/gauss09/g09/l301.exe)
 Standard basis: 6-31G (6D, 7F)
 Ernie: Thresh=  0.10000D-02 Tol=  0.10000D-05 Strict=F.
 There are    20 symmetry adapted basis functions of A'  symmetry.
 There are     4 symmetry adapted basis functions of A"  symmetry.
 Integral buffers will be    131072 words long.
 Raffenetti 2 integral format.
 Two-electron integral symmetry is turned on.
    24 basis functions,    56 primitive gaussians,    24 cartesian basis functions
     8 alpha electrons        7 beta electrons
       nuclear repulsion energy        28.4464751767 Hartrees.
 IExCor=    0 DFT=F Ex=HF Corr=None ExCW=0 ScaHFX=  1.000000
 ScaDFX=  1.000000  1.000000  1.000000  1.000000 ScalE2=  1.000000  1.000000
 IRadAn=      0 IRanWt=     -1 IRanGd=            0 ICorTp=0
 NAtoms=    5 NActive=    5 NUniq=    5 SFac= 1.00D+00 NAtFMM=   50 NAOKFM=F Big=F
 Leave Link  301 at Wed May 26 14:18:22 2021, MaxMem=   33554432 cpu:       0.1
 (Enter /home/emil/gauss09/g09/l302.exe)
 NPDir=0 NMtPBC=     1 NCelOv=     1 NCel=       1 NClECP=     1 NCelD=      1
         NCelK=      1 NCelE2=     1 NClLst=     1 CellRange=     0.0.
 One-electron integrals computed using PRISM.
 NBasis=    24 RedAO= T  NBF=    20     4
 NBsUse=    24 1.00D-06 NBFU=    20     4
 Leave Link  302 at Wed May 26 14:18:23 2021, MaxMem=   33554432 cpu:       0.2
 (Enter /home/emil/gauss09/g09/l303.exe)
 DipDrv:  MaxL=1.
 Leave Link  303 at Wed May 26 14:18:23 2021, MaxMem=   33554432 cpu:       0.0
 (Enter /home/emil/gauss09/g09/l401.exe)
 Harris functional with IExCor=  205 diagonalized for initial guess.
 ExpMin= 1.61D-01 ExpMax= 3.05D+03 ExpMxC= 4.57D+02 IAcc=1 IRadAn=         1 AccDes= 0.00D+00
 HarFok:  IExCor=  205 AccDes= 0.00D+00 IRadAn=         1 IDoV= 1
 ScaDFX=  1.000000  1.000000  1.000000  1.000000
 FoFCou: FMM=F IPFlag=           0 FMFlag=      100000 FMFlg1=           0
         NFxFlg=           0 DoJE=T BraDBF=F KetDBF=T FulRan=T
         Omega=  0.000000  0.000000  1.000000  0.000000  0.000000 ICntrl=     500 IOpCl=  0
         NMat0=    1 NMatS0=    1 NMatT0=    0 NMatD0=    1 NMtDS0=    0 NMtDT0=    0
         I1Cent=           4 NGrid=           0.
 Petite list used in FoFCou.
 Harris En= -77.4531099301046    
 Initial guess orbital symmetries:
 Alpha Orbitals:
       Occupied  (A') (A') (A') (A') (A') (A') (A") (A')
       Virtual   (A") (A') (A') (A') (A') (A') (A") (A') (A') (A")
                 (A') (A') (A') (A') (A') (A')
 Beta  Orbitals:
       Occupied  (A') (A') (A') (A') (A') (A') (A")
       Virtual   (A') (A") (A') (A') (A') (A') (A') (A") (A') (A')
                 (A") (A') (A') (A') (A') (A') (A')
 The electronic state of the initial guess is 2-A'.
 Initial guess <Sx>= 0.0000 <Sy>= 0.0000 <Sz>= 0.5000 <S**2>= 0.7500 S= 0.5000
 Leave Link  401 at Wed May 26 14:18:23 2021, MaxMem=   33554432 cpu:       0.1
 (Enter /home/emil/gauss09/g09/l502.exe)
 UHF open shell SCF:
 Requested convergence on RMS density matrix=1.00D-08 within 128 cycles.
 Requested convergence on MAX density matrix=1.00D-06.
 Requested convergence on             energy=1.00D-06.
 No special actions if energy rises.
 Using DIIS extrapolation, IDIIS=  1040.
 Integral symmetry usage will be decided dynamically.
 Keep R1 and R2 ints in memory in canonical form, NReq=910541.
 IEnd=       20220 IEndB=       20220 NGot=    33554432 MDV=    33461125
 LenX=    33461125 LenY=    33460108
 Symmetry not used in FoFDir.
 MinBra= 0 MaxBra= 1 Meth= 1.
 IRaf=       0 NMat=   1 IRICut=       1 DoRegI=T DoRafI=F ISym2E= 0 JSym2E=0.

 Cycle   1  Pass 1  IDiag  1:
 E= -77.2575402273170    
 DIIS: error= 6.57D-02 at cycle   1 NSaved=   1.
 NSaved= 1 IEnMin= 1 EnMin= -77.2575402273170     IErMin= 1 ErrMin= 6.57D-02
 ErrMax= 6.57D-02 EMaxC= 1.00D-01 BMatC= 3.55D-01 BMatP= 3.55D-01
 IDIUse=3 WtCom= 3.43D-01 WtEn= 6.57D-01
 Coeff-Com:  0.100D+01
 Coeff-En:   0.100D+01
 Coeff:      0.100D+01
 Gap=     0.570 Goal=   None    Shift=    0.000
 Gap=     0.483 Goal=   None    Shift=    0.000
 GapD=    0.483 DampG=2.000 DampE=0.500 DampFc=1.0000 IDamp=-1.
 RMSDP=1.40D-02 MaxDP=1.08D-01              OVMax= 1.30D-01

 Cycle   2  Pass 1  IDiag  1:
 E= -77.3456736821956     Delta-E=       -0.088133454879 Rises=F Damp=F
 DIIS: error= 1.94D-02 at cycle   2 NSaved=   2.
 NSaved= 2 IEnMin= 2 EnMin= -77.3456736821956     IErMin= 2 ErrMin= 1.94D-02
 ErrMax= 1.94D-02 EMaxC= 1.00D-01 BMatC= 3.95D-02 BMatP= 3.55D-01
 IDIUse=3 WtCom= 8.06D-01 WtEn= 1.94D-01
 Coeff-Com:  0.208D+00 0.792D+00
 Coeff-En:   0.000D+00 0.100D+01
 Coeff:      0.168D+00 0.832D+00
 Gap=     0.556 Goal=   None    Shift=    0.000
 Gap=     0.507 Goal=   None    Shift=    0.000
 RMSDP=4.27D-03 MaxDP=3.09D-02 DE=-8.81D-02 OVMax= 3.66D-02

 Cycle   3  Pass 1  IDiag  1:
 E= -77.3566682031903     Delta-E=       -0.010994520995 Rises=F Damp=F
 DIIS: error= 9.71D-03 at cycle   3 NSaved=   3.
 NSaved= 3 IEnMin= 3 EnMin= -77.3566682031903     IErMin= 3 ErrMin= 9.71D-03
 ErrMax= 9.71D-03 EMaxC= 1.00D-01 BMatC= 2.45D-03 BMatP= 3.95D-02
 IDIUse=3 WtCom= 9.03D-01 WtEn= 9.71D-02
 Coeff-Com: -0.174D-01 0.881D-01 0.929D+00
 Coeff-En:   0.000D+00 0.000D+00 0.100D+01
 Coeff:     -0.157D-01 0.795D-01 0.936D+00
 Gap=     0.562 Goal=   None    Shift=    0.000
 Gap=     0.501 Goal=   None    Shift=    0.000
 RMSDP=1.52D-03 MaxDP=1.39D-02 DE=-1.10D-02 OVMax= 2.84D-02

 Cycle   4  Pass 1  IDiag  1:
 E= -77.3582107519126     Delta-E=       -0.001542548722 Rises=F Damp=F
 DIIS: error= 5.97D-03 at cycle   4 NSaved=   4.
 NSaved= 4 IEnMin= 4 EnMin= -77.3582107519126     IErMin= 4 ErrMin= 5.97D-03
 ErrMax= 5.97D-03 EMaxC= 1.00D-01 BMatC= 8.61D-04 BMatP= 2.45D-03
 IDIUse=3 WtCom= 9.40D-01 WtEn= 5.97D-02
 Coeff-Com: -0.138D-01-0.410D-01 0.179D+00 0.876D+00
 Coeff-En:   0.000D+00 0.000D+00 0.000D+00 0.100D+01
 Coeff:     -0.130D-01-0.386D-01 0.168D+00 0.883D+00
 Gap=     0.562 Goal=   None    Shift=    0.000
 Gap=     0.507 Goal=   None    Shift=    0.000
 RMSDP=8.66D-04 MaxDP=7.33D-03 DE=-1.54D-03 OVMax= 1.66D-02

 Cycle   5  Pass 1  IDiag  1:
 E= -77.3590802736802     Delta-E=       -0.000869521768 Rises=F Damp=F
 DIIS: error= 5.70D-03 at cycle   5 NSaved=   5.
 NSaved= 5 IEnMin= 5 EnMin= -77.3590802736802     IErMin= 5 ErrMin= 5.70D-03
 ErrMax= 5.70D-03 EMaxC= 1.00D-01 BMatC= 5.51D-04 BMatP= 8.61D-04
 IDIUse=3 WtCom= 9.43D-01 WtEn= 5.70D-02
 Coeff-Com:  0.820D-02-0.816D-02-0.274D+00-0.383D+00 0.166D+01
 Coeff-En:   0.000D+00 0.000D+00 0.000D+00 0.000D+00 0.100D+01
 Coeff:      0.773D-02-0.769D-02-0.258D+00-0.361D+00 0.162D+01
 Gap=     0.565 Goal=   None    Shift=    0.000
 Gap=     0.511 Goal=   None    Shift=    0.000
 RMSDP=1.46D-03 MaxDP=1.43D-02 DE=-8.70D-04 OVMax= 3.31D-02

 Cycle   6  Pass 1  IDiag  1:
 E= -77.3604369483299     Delta-E=       -0.001356674650 Rises=F Damp=F
 DIIS: error= 5.01D-03 at cycle   6 NSaved=   6.
 NSaved= 6 IEnMin= 6 EnMin= -77.3604369483299     IErMin= 6 ErrMin= 5.01D-03
 ErrMax= 5.01D-03 EMaxC= 1.00D-01 BMatC= 4.57D-04 BMatP= 5.51D-04
 IDIUse=3 WtCom= 9.50D-01 WtEn= 5.01D-02
 Coeff-Com: -0.209D-01 0.452D-01 0.833D+00 0.678D+00-0.527D+01 0.473D+01
 Coeff-En:   0.000D+00 0.000D+00 0.000D+00 0.000D+00 0.000D+00 0.100D+01
 Coeff:     -0.198D-01 0.429D-01 0.791D+00 0.644D+00-0.500D+01 0.454D+01
 Gap=     0.570 Goal=   None    Shift=    0.000
 Gap=     0.521 Goal=   None    Shift=    0.000
 RMSDP=3.83D-03 MaxDP=3.94D-02 DE=-1.36D-03 OVMax= 8.60D-02

 Cycle   7  Pass 1  IDiag  1:
 E= -77.3635098085486     Delta-E=       -0.003072860219 Rises=F Damp=F
 DIIS: error= 3.56D-03 at cycle   7 NSaved=   7.
 NSaved= 7 IEnMin= 7 EnMin= -77.3635098085486     IErMin= 7 ErrMin= 3.56D-03
 ErrMax= 3.56D-03 EMaxC= 1.00D-01 BMatC= 2.38D-04 BMatP= 4.57D-04
 IDIUse=3 WtCom= 9.64D-01 WtEn= 3.56D-02
 Coeff-Com:  0.317D-01-0.726D-01-0.136D+01-0.977D+00 0.845D+01-0.899D+01
 Coeff-Com:  0.391D+01
 Coeff-En:   0.000D+00 0.000D+00 0.000D+00 0.000D+00 0.000D+00 0.000D+00
 Coeff-En:   0.100D+01
 Coeff:      0.306D-01-0.700D-01-0.131D+01-0.942D+00 0.815D+01-0.867D+01
 Coeff:      0.381D+01
 Gap=     0.584 Goal=   None    Shift=    0.000
 Gap=     0.543 Goal=   None    Shift=    0.000
 RMSDP=5.22D-03 MaxDP=5.45D-02 DE=-3.07D-03 OVMax= 1.12D-01

 Cycle   8  Pass 1  IDiag  1:
 E= -77.3648109202437     Delta-E=       -0.001301111695 Rises=F Damp=F
 DIIS: error= 1.51D-03 at cycle   8 NSaved=   8.
 NSaved= 8 IEnMin= 8 EnMin= -77.3648109202437     IErMin= 8 ErrMin= 1.51D-03
 ErrMax= 1.51D-03 EMaxC= 1.00D-01 BMatC= 4.67D-05 BMatP= 2.38D-04
 IDIUse=3 WtCom= 9.85D-01 WtEn= 1.51D-02
 Coeff-Com: -0.111D-01 0.327D-01 0.474D+00 0.271D+00-0.287D+01 0.355D+01
 Coeff-Com: -0.151D+01 0.106D+01
 Coeff-En:   0.000D+00 0.000D+00 0.000D+00 0.000D+00 0.000D+00 0.000D+00
 Coeff-En:   0.000D+00 0.100D+01
 Coeff:     -0.109D-01 0.322D-01 0.467D+00 0.267D+00-0.283D+01 0.350D+01
 Coeff:     -0.149D+01 0.106D+01
 Gap=     0.571 Goal=   None    Shift=    0.000
 Gap=     0.526 Goal=   None    Shift=    0.000
 RMSDP=3.04D-03 MaxDP=3.22D-02 DE=-1.30D-03 OVMax= 6.58D-02

 Cycle   9  Pass 1  IDiag  1:
 E= -77.3646148779868     Delta-E=        0.000196042257 Rises=F Damp=F
 DIIS: error= 1.95D-03 at cycle   9 NSaved=   9.
 NSaved= 9 IEnMin= 8 EnMin= -77.3648109202437     IErMin= 8 ErrMin= 1.51D-03
 ErrMax= 1.95D-03 EMaxC= 1.00D-01 BMatC= 7.03D-05 BMatP= 4.67D-05
 IDIUse=3 WtCom= 9.85D-01 WtEn= 1.51D-02
 Rare condition: small coef for last iteration:  0.000D+00
 Coeff-Com: -0.581D-02 0.121D-01 0.248D+00 0.183D+00-0.155D+01 0.165D+01
 Coeff-Com: -0.871D+00 0.592D+00 0.741D+00
 Coeff-En:   0.000D+00 0.000D+00 0.000D+00 0.000D+00 0.000D+00 0.000D+00
 Coeff-En:   0.000D+00 0.000D+00 0.100D+01
 Coeff:     -0.581D-02 0.121D-01 0.248D+00 0.183D+00-0.155D+01 0.165D+01
 Coeff:     -0.871D+00 0.592D+00 0.741D+00
 Gap=     0.581 Goal=   None    Shift=    0.000
 Gap=     0.538 Goal=   None    Shift=    0.000
 RMSDP=1.53D-03 MaxDP=1.61D-02 DE= 1.96D-04 OVMax= 3.31D-02

 Cycle  10  Pass 1  IDiag  1:
 E= -77.3649447137362     Delta-E=       -0.000329835749 Rises=F Damp=F
 DIIS: error= 4.15D-04 at cycle  10 NSaved=  10.
 NSaved=10 IEnMin=10 EnMin= -77.3649447137362     IErMin=10 ErrMin= 4.15D-04
 ErrMax= 4.15D-04 EMaxC= 1.00D-01 BMatC= 3.71D-06 BMatP= 4.67D-05
 IDIUse=3 WtCom= 9.96D-01 WtEn= 4.15D-03
 Coeff-Com:  0.111D-02-0.139D-02-0.432D-01-0.453D-01 0.277D+00-0.259D+00
 Coeff-Com:  0.163D+00-0.286D+00-0.768D+00 0.196D+01
 Coeff-En:   0.000D+00 0.000D+00 0.000D+00 0.000D+00 0.000D+00 0.000D+00
 Coeff-En:   0.000D+00 0.000D+00 0.000D+00 0.100D+01
 Coeff:      0.110D-02-0.139D-02-0.431D-01-0.451D-01 0.276D+00-0.258D+00
 Coeff:      0.163D+00-0.285D+00-0.764D+00 0.196D+01
 Gap=     0.584 Goal=   None    Shift=    0.000
 Gap=     0.543 Goal=   None    Shift=    0.000
 RMSDP=5.04D-04 MaxDP=5.21D-03 DE=-3.30D-04 OVMax= 1.06D-02

 Cycle  11  Pass 1  IDiag  1:
 E= -77.3649575129933     Delta-E=       -0.000012799257 Rises=F Damp=F
 DIIS: error= 1.51D-04 at cycle  11 NSaved=  11.
 NSaved=11 IEnMin=11 EnMin= -77.3649575129933     IErMin=11 ErrMin= 1.51D-04
 ErrMax= 1.51D-04 EMaxC= 1.00D-01 BMatC= 4.06D-07 BMatP= 3.71D-06
 IDIUse=3 WtCom= 9.98D-01 WtEn= 1.51D-03
 Coeff-Com:  0.338D-03-0.134D-02-0.164D-01-0.583D-02 0.989D-01-0.125D+00
 Coeff-Com:  0.524D-01 0.109D-01 0.283D+00-0.675D+00 0.138D+01
 Coeff-En:   0.000D+00 0.000D+00 0.000D+00 0.000D+00 0.000D+00 0.000D+00
 Coeff-En:   0.000D+00 0.000D+00 0.000D+00 0.000D+00 0.100D+01
 Coeff:      0.337D-03-0.134D-02-0.164D-01-0.582D-02 0.987D-01-0.125D+00
 Coeff:      0.524D-01 0.109D-01 0.283D+00-0.674D+00 0.138D+01
 Gap=     0.583 Goal=   None    Shift=    0.000
 Gap=     0.542 Goal=   None    Shift=    0.000
 RMSDP=1.25D-04 MaxDP=1.35D-03 DE=-1.28D-05 OVMax= 2.70D-03

 Cycle  12  Pass 1  IDiag  1:
 E= -77.3649591386579     Delta-E=       -0.000001625665 Rises=F Damp=F
 DIIS: error= 3.47D-06 at cycle  12 NSaved=  12.
 NSaved=12 IEnMin=12 EnMin= -77.3649591386579     IErMin=12 ErrMin= 3.47D-06
 ErrMax= 3.47D-06 EMaxC= 1.00D-01 BMatC= 1.23D-09 BMatP= 4.06D-07
 IDIUse=1 WtCom= 1.00D+00 WtEn= 0.00D+00
 Coeff-Com: -0.135D-03 0.569D-03 0.668D-02 0.175D-02-0.388D-01 0.489D-01
 Coeff-Com: -0.237D-01-0.223D-02-0.132D+00 0.317D+00-0.768D+00 0.159D+01
 Coeff:     -0.135D-03 0.569D-03 0.668D-02 0.175D-02-0.388D-01 0.489D-01
 Coeff:     -0.237D-01-0.223D-02-0.132D+00 0.317D+00-0.768D+00 0.159D+01
 Gap=     0.583 Goal=   None    Shift=    0.000
 Gap=     0.542 Goal=   None    Shift=    0.000
 RMSDP=9.81D-06 MaxDP=9.22D-05 DE=-1.63D-06 OVMax= 1.98D-04

 Cycle  13  Pass 1  IDiag  1:
 E= -77.3649591326186     Delta-E=        0.000000006039 Rises=F Damp=F
 DIIS: error= 9.93D-06 at cycle  13 NSaved=  13.
 NSaved=13 IEnMin=12 EnMin= -77.3649591386579     IErMin=12 ErrMin= 3.47D-06
 ErrMax= 9.93D-06 EMaxC= 1.00D-01 BMatC= 1.82D-09 BMatP= 1.23D-09
 IDIUse=1 WtCom= 1.00D+00 WtEn= 0.00D+00
 Coeff-Com:  0.444D-04-0.161D-03-0.206D-02-0.782D-03 0.115D-01-0.135D-01
 Coeff-Com:  0.758D-02-0.294D-02 0.258D-01-0.532D-01 0.144D+00-0.534D+00
 Coeff-Com:  0.142D+01
 Coeff:      0.444D-04-0.161D-03-0.206D-02-0.782D-03 0.115D-01-0.135D-01
 Coeff:      0.758D-02-0.294D-02 0.258D-01-0.532D-01 0.144D+00-0.534D+00
 Coeff:      0.142D+01
 Gap=     0.583 Goal=   None    Shift=    0.000
 Gap=     0.542 Goal=   None    Shift=    0.000
 RMSDP=1.02D-05 MaxDP=1.07D-04 DE= 6.04D-09 OVMax= 2.17D-04

 Cycle  14  Pass 1  IDiag  1:
 E= -77.3649591395457     Delta-E=       -0.000000006927 Rises=F Damp=F
 DIIS: error= 2.15D-06 at cycle  14 NSaved=  14.
 NSaved=14 IEnMin=14 EnMin= -77.3649591395457     IErMin=14 ErrMin= 2.15D-06
 ErrMax= 2.15D-06 EMaxC= 1.00D-01 BMatC= 8.29D-11 BMatP= 1.23D-09
 IDIUse=1 WtCom= 1.00D+00 WtEn= 0.00D+00
 Coeff-Com: -0.949D-05 0.296D-04 0.420D-03 0.238D-03-0.221D-02 0.227D-02
 Coeff-Com: -0.165D-02 0.138D-02-0.340D-02 0.362D-02-0.928D-02 0.104D+00
 Coeff-Com: -0.519D+00 0.142D+01
 Coeff:     -0.949D-05 0.296D-04 0.420D-03 0.238D-03-0.221D-02 0.227D-02
 Coeff:     -0.165D-02 0.138D-02-0.340D-02 0.362D-02-0.928D-02 0.104D+00
 Coeff:     -0.519D+00 0.142D+01
 Gap=     0.583 Goal=   None    Shift=    0.000
 Gap=     0.542 Goal=   None    Shift=    0.000
 RMSDP=2.52D-06 MaxDP=2.69D-05 DE=-6.93D-09 OVMax= 5.38D-05

 Cycle  15  Pass 1  IDiag  1:
 E= -77.3649591398275     Delta-E=       -0.000000000282 Rises=F Damp=F
 DIIS: error= 8.57D-07 at cycle  15 NSaved=  15.
 NSaved=15 IEnMin=15 EnMin= -77.3649591398275     IErMin=15 ErrMin= 8.57D-07
 ErrMax= 8.57D-07 EMaxC= 1.00D-01 BMatC= 1.29D-11 BMatP= 8.29D-11
 IDIUse=1 WtCom= 1.00D+00 WtEn= 0.00D+00
 Coeff-Com:  0.698D-06 0.995D-06-0.170D-04-0.545D-04 0.392D-04 0.849D-04
 Coeff-Com:  0.103D-03-0.525D-03-0.137D-02 0.514D-02-0.135D-01 0.123D-01
 Coeff-Com:  0.751D-01-0.467D+00 0.139D+01
 Coeff:      0.698D-06 0.995D-06-0.170D-04-0.545D-04 0.392D-04 0.849D-04
 Coeff:      0.103D-03-0.525D-03-0.137D-02 0.514D-02-0.135D-01 0.123D-01
 Coeff:      0.751D-01-0.467D+00 0.139D+01
 Gap=     0.583 Goal=   None    Shift=    0.000
 Gap=     0.542 Goal=   None    Shift=    0.000
 RMSDP=6.15D-07 MaxDP=6.44D-06 DE=-2.82D-10 OVMax= 1.32D-05

 Cycle  16  Pass 1  IDiag  1:
 E= -77.3649591398799     Delta-E=       -0.000000000052 Rises=F Damp=F
 DIIS: error= 1.31D-07 at cycle  16 NSaved=  16.
 NSaved=16 IEnMin=16 EnMin= -77.3649591398799     IErMin=16 ErrMin= 1.31D-07
 ErrMax= 1.31D-07 EMaxC= 1.00D-01 BMatC= 3.34D-13 BMatP= 1.29D-11
 IDIUse=1 WtCom= 1.00D+00 WtEn= 0.00D+00
 Coeff-Com:  0.231D-06-0.982D-06-0.130D-04 0.428D-05 0.906D-04-0.124D-03
 Coeff-Com:  0.254D-04 0.681D-04 0.195D-03-0.873D-03 0.288D-02-0.411D-02
 Coeff-Com: -0.117D-01 0.105D+00-0.573D+00 0.148D+01
 Coeff:      0.231D-06-0.982D-06-0.130D-04 0.428D-05 0.906D-04-0.124D-03
 Coeff:      0.254D-04 0.681D-04 0.195D-03-0.873D-03 0.288D-02-0.411D-02
 Coeff:     -0.117D-01 0.105D+00-0.573D+00 0.148D+01
 Gap=     0.583 Goal=   None    Shift=    0.000
 Gap=     0.542 Goal=   None    Shift=    0.000
 RMSDP=1.09D-07 MaxDP=1.18D-06 DE=-5.23D-11 OVMax= 2.36D-06

 Cycle  17  Pass 1  IDiag  1:
 E= -77.3649591398811     Delta-E=       -0.000000000001 Rises=F Damp=F
 DIIS: error= 5.43D-09 at cycle  17 NSaved=  17.
 NSaved=17 IEnMin=17 EnMin= -77.3649591398811     IErMin=17 ErrMin= 5.43D-09
 ErrMax= 5.43D-09 EMaxC= 1.00D-01 BMatC= 2.41D-15 BMatP= 3.34D-13
 IDIUse=1 WtCom= 1.00D+00 WtEn= 0.00D+00
 Large coefficients: NSaved= 17 BigCof=    0.00 CofMax=   10.00 Det=-1.99D-15
 Inversion failed.  Reducing to 16 matrices.
 Large coefficients: NSaved= 16 BigCof=    0.00 CofMax=   10.00 Det=-2.01D-15
 Inversion failed.  Reducing to 15 matrices.
 Coeff-Com:  0.901D-06-0.371D-05-0.639D-05 0.129D-04 0.312D-05-0.172D-04
 Coeff-Com: -0.247D-04 0.146D-03-0.512D-03 0.695D-03 0.326D-02-0.249D-01
 Coeff-Com:  0.171D+00-0.699D+00 0.155D+01
 Coeff:      0.901D-06-0.371D-05-0.639D-05 0.129D-04 0.312D-05-0.172D-04
 Coeff:     -0.247D-04 0.146D-03-0.512D-03 0.695D-03 0.326D-02-0.249D-01
 Coeff:      0.171D+00-0.699D+00 0.155D+01
 Gap=     0.583 Goal=   None    Shift=    0.000
 Gap=     0.542 Goal=   None    Shift=    0.000
 RMSDP=3.76D-09 MaxDP=2.57D-08 DE=-1.21D-12 OVMax= 3.30D-08

 SCF Done:  E(UHF) =  -77.3649591399     A.U. after   17 cycles
             Convg  =    0.3762D-08             -V/T =  1.9984
 <Sx>= 0.0000 <Sy>= 0.0000 <Sz>= 0.5000 <S**2>= 1.0150 S= 0.6247
 <L.S>= 0.000000000000E+00
 KE= 7.749087837687D+01 PE=-2.369714858729D+02 EE= 5.366917317940D+01
 Annihilation of the first spin contaminant:
 S**2 before annihilation     1.0150,   after     0.7597
 Leave Link  502 at Wed May 26 14:18:23 2021, MaxMem=   33554432 cpu:       0.1
 (Enter /home/emil/gauss09/g09/l601.exe)
 Copying SCF densities to generalized density rwf, IOpCl= 1 IROHF=0.

 **********************************************************************

            Population analysis using the SCF density.

 **********************************************************************

 Orbital symmetries:
 Alpha Orbitals:
       Occupied  (A') (A') (A') (A') (A') (A') (A") (A')
       Virtual   (A") (A') (A') (A') (A') (A') (A") (A') (A') (A")
                 (A') (A') (A') (A') (A') (A')
 Beta  Orbitals:
       Occupied  (A') (A') (A') (A') (A') (A') (A")
       Virtual   (A') (A") (A') (A') (A') (A') (A') (A") (A') (A')
                 (A") (A') (A') (A') (A') (A') (A')
 The electronic state is 2-A'.
 Alpha  occ. eigenvalues --  -11.25865 -11.22314  -1.05008  -0.78486  -0.63392
 Alpha  occ. eigenvalues --   -0.59614  -0.41060  -0.39700
 Alpha virt. eigenvalues --    0.18642   0.27324   0.28438   0.35139   0.49641
 Alpha virt. eigenvalues --    0.67915   0.76055   0.77965   0.79805   0.89714
 Alpha virt. eigenvalues --    0.95730   1.13118   1.20977   1.22993   1.31058
 Alpha virt. eigenvalues --    1.38371
  Beta  occ. eigenvalues --  -11.23949 -11.21985  -1.01988  -0.73396  -0.60975
  Beta  occ. eigenvalues --   -0.56835  -0.39660
  Beta virt. eigenvalues --    0.14510   0.21312   0.27757   0.29658   0.36085
  Beta virt. eigenvalues --    0.52002   0.70487   0.76706   0.81331   0.90521
  Beta virt. eigenvalues --    0.90940   0.97175   1.13489   1.22392   1.23810
  Beta virt. eigenvalues --    1.32967   1.39733
          Condensed to atoms (all electrons):
              1          2          3          4          5
     1  C    5.140741   0.524572   0.378288   0.389822  -0.040803
     2  C    0.524572   5.334199  -0.042753  -0.044105   0.363298
     3  H    0.378288  -0.042753   0.522290  -0.027880  -0.000831
     4  H    0.389822  -0.044105  -0.027880   0.501422   0.002223
     5  H   -0.040803   0.363298  -0.000831   0.002223   0.497685
 Mulliken atomic charges:
              1
     1  C   -0.392620
     2  C   -0.135211
     3  H    0.170886
     4  H    0.178517
     5  H    0.178428
 Sum of Mulliken atomic charges =   0.00000
 Mulliken charges with hydrogens summed into heavy atoms:
              1
     1  C   -0.043217
     2  C    0.043217
 Sum of Mulliken charges with hydrogens summed into heavy atoms =   0.00000
          Atomic-Atomic Spin Densities.
              1          2          3          4          5
     1  C   -0.940528  -0.050309   0.023671   0.024825   0.005568
     2  C   -0.050309   1.896112  -0.027707  -0.015292  -0.027383
     3  H    0.023671  -0.027707   0.160707  -0.014234  -0.003367
     4  H    0.024825  -0.015292  -0.014234   0.106705   0.000854
     5  H    0.005568  -0.027383  -0.003367   0.000854  -0.056247
 Mulliken atomic spin densities:
              1
     1  C   -0.936773
     2  C    1.775421
     3  H    0.139070
     4  H    0.102858
     5  H   -0.080576
 Sum of Mulliken atomic spin densities =   1.00000
 Electronic spatial extent (au):  <R**2>=             72.6819
 Charge=              0.0000 electrons
 Dipole moment (field-independent basis, Debye):
    X=             -0.5604    Y=             -0.2006    Z=              0.0000  Tot=              0.5952
 Quadrupole moment (field-independent basis, Debye-Ang):
   XX=            -12.2002   YY=            -11.5310   ZZ=            -14.5556
   XY=             -1.0382   XZ=              0.0000   YZ=              0.0000
 Traceless Quadrupole moment (field-independent basis, Debye-Ang):
   XX=              0.5620   YY=              1.2313   ZZ=             -1.7933
   XY=             -1.0382   XZ=              0.0000   YZ=              0.0000
 Octapole moment (field-independent basis, Debye-Ang**2):
  XXX=             -0.6791  YYY=              0.0920  ZZZ=              0.0000  XYY=             -1.5927
  XXY=             -1.0801  XXZ=              0.0000  XZZ=             -0.2301  YZZ=             -0.0991
  YYZ=              0.0000  XYZ=              0.0000
 Hexadecapole moment (field-independent basis, Debye-Ang**3):
 XXXX=            -21.4759 YYYY=            -59.0257 ZZZZ=            -15.5198 XXXY=              1.2271
 XXXZ=              0.0000 YYYX=             -0.6527 YYYZ=              0.0000 ZZZX=              0.0000
 ZZZY=              0.0000 XXYY=            -12.1617 XXZZ=             -6.5338 YYZZ=            -13.7455
 XXYZ=              0.0000 YYXZ=              0.0000 ZZXY=              0.6900
 N-N= 2.844647517674D+01 E-N=-3.517597262153D+02  KE= 1.155868288232D+02
 Symmetry A'   KE= 1.124509806750D+02
 Symmetry A"   KE= 3.135848148175D+00
                          Isotropic Fermi Contact Couplings
        Atom                 a.u.       MegaHertz       Gauss      10(-4) cm-1
     1  C(13)             -0.17825    -200.38796     -71.50340     -66.84223
     2  C(13)              0.51837     582.74453     207.93773     194.38265
     3  H(1)               0.05113     228.53389      81.54657      76.23070
     4  H(1)               0.03842     171.74912      61.28436      57.28934
     5  H(1)              -0.01897     -84.78222     -30.25240     -28.28030
 --------------------------------------------------------
       Center         ----  Spin Dipole Couplings  ----
                      3XX-RR        3YY-RR        3ZZ-RR
 --------------------------------------------------------
     1   Atom        0.219525      0.354202     -0.573726
     2   Atom        0.467695     -0.554113      0.086418
     3   Atom       -0.036997      0.038054     -0.001056
     4   Atom       -0.040999      0.046341     -0.005342
     5   Atom        0.037560      0.028372     -0.065932
 --------------------------------------------------------
                        XY            XZ            YZ
 --------------------------------------------------------
     1   Atom        0.004255      0.000000      0.000000
     2   Atom        0.506863      0.000000      0.000000
     3   Atom       -0.029849      0.000000      0.000000
     4   Atom        0.028064      0.000000      0.000000
     5   Atom       -0.089948      0.000000      0.000000
 --------------------------------------------------------


 ---------------------------------------------------------------------------------
              Anisotropic Spin Dipole Couplings in Principal Axis System
 ---------------------------------------------------------------------------------

       Atom             a.u.   MegaHertz   Gauss  10(-4) cm-1        Axes

              Baa    -0.5737   -76.989   -27.471   -25.681  0.0000  0.0000  1.0000
     1 C(13)  Bbb     0.2194    29.440    10.505     9.820  0.9995 -0.0315  0.0000
              Bcc     0.3543    47.549    16.967    15.860  0.0315  0.9995  0.0000
 
              Baa    -0.7629  -102.372   -36.529   -34.148 -0.3808  0.9246  0.0000
     2 C(13)  Bbb     0.0864    11.596     4.138     3.868  0.0000  0.0000  1.0000
              Bcc     0.6765    90.775    32.391    30.279  0.9246  0.3808  0.0000
 
              Baa    -0.0474   -25.302    -9.028    -8.440  0.9441  0.3297  0.0000
     3 H(1)   Bbb    -0.0011    -0.564    -0.201    -0.188  0.0000  0.0000  1.0000
              Bcc     0.0485    25.865     9.229     8.628 -0.3297  0.9441  0.0000
 
              Baa    -0.0492   -26.272    -9.374    -8.763  0.9595 -0.2817  0.0000
     4 H(1)   Bbb    -0.0053    -2.850    -1.017    -0.951  0.0000  0.0000  1.0000
              Bcc     0.0546    29.122    10.391     9.714  0.2817  0.9595  0.0000
 
              Baa    -0.0659   -35.178   -12.553   -11.734  0.0000  0.0000  1.0000
     5 H(1)   Bbb    -0.0571   -30.465   -10.871   -10.162  0.6888  0.7249  0.0000
              Bcc     0.1230    65.644    23.423    21.896  0.7249 -0.6888  0.0000
 

 ---------------------------------------------------------------------------------

 No NMR shielding tensors so no spin-rotation constants.
 Leave Link  601 at Wed May 26 14:18:23 2021, MaxMem=   33554432 cpu:       0.2
 (Enter /home/emil/gauss09/g09/l9999.exe)
 1\1\GINC-KONG-SRV\SP\UHF\6-31G\C2H3(2)\EMIL\26-May-2021\0\\#P HF/6-31G
 \\CH2CH\\0,2\C\C,1,1.31011895\H,1,1.08843739,2,121.42274119\H,1,1.0832
 419,2,121.97466825,3,180.,0\H,2,1.07743602,1,137.192185,3,0.,0\\Versio
 n=EM64L-G09RevB.01\State=2-A'\HF=-77.3649591\S2=1.014996\S2-1=0.\S2A=0
 .759669\RMSD=3.762e-09\Dipole=0.2204663,0.,-0.0789105\Quadrupole=0.417
 8613,-1.3332944,0.915433,0.,0.7718517,0.\PG=CS [SG(C2H3)]\\@


 WE HAVE LEARNED THAT NOTHING IS SIMPLE AND
 RATIONAL EXCEPT WHAT WE OURSELVES HAVE INVENTED;
 THAT GOD THINKS IN TERMS NEITHER OF EUCLID OR RIEMANN; THAT SCIENCE HAS "EXPLAINED" NOTHING;
 THAT THE MORE WE KNOW THE MORE FANTASTIC THE WORLD BECOMES
 AND THE PROFOUNDER THE SURROUNDING DARKNESS.
   --  ALDOUS HUXLEY
 Job cpu time:  0 days  0 hours  0 minutes  1.0 seconds.
 File lengths (MBytes):  RWF=      5 Int=      0 D2E=      0 Chk=      1 Scr=      1
 Normal termination of Gaussian 09 at Wed May 26 14:18:23 2021.
