 Entering Gaussian System, Link 0=g09
 Input=CH3CHO.com
 Output=CH3CHO.log
 Initial command:
 /home/emil/gauss09/g09/l1.exe /home/emil/scratch/g09/Gau-9974.inp -scrdir=/home/emil/scratch/g09/
 Entering Link 1 = /home/emil/gauss09/g09/l1.exe PID=      9976.
  
 Copyright (c) 1988,1990,1992,1993,1995,1998,2003,2009,2010,
            Gaussian, Inc.  All Rights Reserved.
  
 This is part of the Gaussian(R) 09 program.  It is based on
 the Gaussian(R) 03 system (copyright 2003, Gaussian, Inc.),
 the Gaussian(R) 98 system (copyright 1998, Gaussian, Inc.),
 the Gaussian(R) 94 system (copyright 1995, Gaussian, Inc.),
 the Gaussian 92(TM) system (copyright 1992, Gaussian, Inc.),
 the Gaussian 90(TM) system (copyright 1990, Gaussian, Inc.),
 the Gaussian 88(TM) system (copyright 1988, Gaussian, Inc.),
 the Gaussian 86(TM) system (copyright 1986, Carnegie Mellon
 University), and the Gaussian 82(TM) system (copyright 1983,
 Carnegie Mellon University). Gaussian is a federally registered
 trademark of Gaussian, Inc.
  
 This software contains proprietary and confidential information,
 including trade secrets, belonging to Gaussian, Inc.
  
 This software is provided under written license and may be
 used, copied, transmitted, or stored only in accord with that
 written license.
  
 The following legend is applicable only to US Government
 contracts under FAR:
  
                    RESTRICTED RIGHTS LEGEND
  
 Use, reproduction and disclosure by the US Government is
 subject to restrictions as set forth in subparagraphs (a)
 and (c) of the Commercial Computer Software - Restricted
 Rights clause in FAR 52.227-19.
  
 Gaussian, Inc.
 340 Quinnipiac St., Bldg. 40, Wallingford CT 06492
  
  
 ---------------------------------------------------------------
 Warning -- This program may not be used in any manner that
 competes with the business of Gaussian, Inc. or will provide
 assistance to any competitor of Gaussian, Inc.  The licensee
 of this program is prohibited from giving any competitor of
 Gaussian, Inc. access to this program.  By using this program,
 the user acknowledges that Gaussian, Inc. is engaged in the
 business of creating and licensing software in the field of
 computational chemistry and represents and warrants to the
 licensee that it is not a competitor of Gaussian, Inc. and that
 it will not use this program in any manner prohibited above.
 ---------------------------------------------------------------
  

 Cite this work as:
 Gaussian 09, Revision B.01,
 M. J. Frisch, G. W. Trucks, H. B. Schlegel, G. E. Scuseria, 
 M. A. Robb, J. R. Cheeseman, G. Scalmani, V. Barone, B. Mennucci, 
 G. A. Petersson, H. Nakatsuji, M. Caricato, X. Li, H. P. Hratchian, 
 A. F. Izmaylov, J. Bloino, G. Zheng, J. L. Sonnenberg, M. Hada, 
 M. Ehara, K. Toyota, R. Fukuda, J. Hasegawa, M. Ishida, T. Nakajima, 
 Y. Honda, O. Kitao, H. Nakai, T. Vreven, J. A. Montgomery, Jr., 
 J. E. Peralta, F. Ogliaro, M. Bearpark, J. J. Heyd, E. Brothers, 
 K. N. Kudin, V. N. Staroverov, T. Keith, R. Kobayashi, J. Normand, 
 K. Raghavachari, A. Rendell, J. C. Burant, S. S. Iyengar, J. Tomasi, 
 M. Cossi, N. Rega, J. M. Millam, M. Klene, J. E. Knox, J. B. Cross, 
 V. Bakken, C. Adamo, J. Jaramillo, R. Gomperts, R. E. Stratmann, 
 O. Yazyev, A. J. Austin, R. Cammi, C. Pomelli, J. W. Ochterski, 
 R. L. Martin, K. Morokuma, V. G. Zakrzewski, G. A. Voth, 
 P. Salvador, J. J. Dannenberg, S. Dapprich, A. D. Daniels, 
 O. Farkas, J. B. Foresman, J. V. Ortiz, J. Cioslowski, 
 and D. J. Fox, Gaussian, Inc., Wallingford CT, 2010.
 
 ******************************************
 Gaussian 09:  EM64L-G09RevB.01 12-Aug-2010
                26-May-2021 
 ******************************************
 -----------
 #P HF/6-31G
 -----------
 1/38=1/1;
 2/12=2,17=6,18=5,40=1/2;
 3/5=1,6=6,11=9,16=1,25=1,30=1/1,2,3;
 4//1;
 5/5=2,38=5/2;
 6/7=2,8=2,9=2,10=2,28=1/1;
 99/5=1,9=1/99;
 Leave Link    1 at Wed May 26 14:24:57 2021, MaxMem=          0 cpu:       0.0
 (Enter /home/emil/gauss09/g09/l101.exe)
 ------
 CH3CHO
 ------
 Symbolic Z-matrix:
 Charge =  0 Multiplicity = 1
 O
 C                    1    rco
 H                    2    rch2     1    aoch
 C                    2    rcc      1    aocc     3     180.     0
 H                    4    rch4a    2    accha    1     0.       0
 H                    4    rch4b    2    acchb    1    t1       0
 H                    4    rch4b    2    acchb    1    -t1      0
       Variables:
  rco                   1.20631                  
  rch2                  1.10505                  
  rcc                   1.50205                  
  rch4a                 1.0866                   
  rch4b                 1.09152                  
  aoch                120.13508                  
  aocc                124.49388                  
  accha               110.69463                  
  acchb               109.45253                  
  t1                  121.48201                  
 
 NAtoms=      7 NQM=      7 NQMF=      0 NMic=      0 NMicF=      0 NTot=      7.
                    Isotopes and Nuclear Properties:
 (Nuclear quadrupole moments (NQMom) in fm**2, nuclear magnetic moments (NMagM)
  in nuclear magnetons)

  Atom         1           2           3           4           5           6           7
 IAtWgt=          16          12           1          12           1           1           1
 AtmWgt=  15.9949146  12.0000000   1.0078250  12.0000000   1.0078250   1.0078250   1.0078250
 NucSpn=           0           0           1           0           1           1           1
 AtZEff=   0.0000000   0.0000000   0.0000000   0.0000000   0.0000000   0.0000000   0.0000000
 NQMom=    0.0000000   0.0000000   0.0000000   0.0000000   0.0000000   0.0000000   0.0000000
 NMagM=    0.0000000   0.0000000   2.7928460   0.0000000   2.7928460   2.7928460   2.7928460
 Leave Link  101 at Wed May 26 14:24:57 2021, MaxMem=   33554432 cpu:       0.1
 (Enter /home/emil/gauss09/g09/l202.exe)
                          Input orientation:                          
 ---------------------------------------------------------------------
 Center     Atomic      Atomic             Coordinates (Angstroms)
 Number     Number       Type             X           Y           Z
 ---------------------------------------------------------------------
      1          8           0        0.000000    0.000000    0.000000
      2          6           0        0.000000    0.000000    1.206308
      3          1           0        0.955693    0.000000    1.761085
      4          6           0       -1.237970    0.000000    2.056946
      5          1           0       -2.130107    0.000000    1.436629
      6          1           0       -1.233177   -0.877721    2.705798
      7          1           0       -1.233177    0.877721    2.705798
 ---------------------------------------------------------------------
                    Distance matrix (angstroms):
                    1          2          3          4          5
     1  O    0.000000
     2  C    1.206308   0.000000
     3  H    2.003689   1.105046   0.000000
     4  C    2.400749   1.502050   2.213524   0.000000
     5  H    2.569292   2.142523   3.102811   1.086601   0.000000
     6  H    3.100397   2.130631   2.540477   1.091525   1.784844
     7  H    3.100397   2.130631   2.540477   1.091525   1.784844
                    6          7
     6  H    0.000000
     7  H    1.755443   0.000000
 Stoichiometry    C2H4O
 Framework group  CS[SG(C2H2O),X(H2)]
 Deg. of freedom    10
 Full point group                 CS      NOp   2
 Largest Abelian subgroup         CS      NOp   2
 Largest concise Abelian subgroup CS      NOp   2
                         Standard orientation:                         
 ---------------------------------------------------------------------
 Center     Atomic      Atomic             Coordinates (Angstroms)
 Number     Number       Type             X           Y           Z
 ---------------------------------------------------------------------
      1          8           0        1.203455    0.379374    0.000000
      2          6           0        0.000000    0.462284    0.000000
      3          1           0       -0.487781    1.453847    0.000000
      4          6           0       -0.933713   -0.714293    0.000000
      5          1           0       -0.376180   -1.646956    0.000000
      6          1           0       -1.580701   -0.664916    0.877721
      7          1           0       -1.580701   -0.664916   -0.877721
 ---------------------------------------------------------------------
 Rotational constants (GHZ):     57.2408036     10.1780060      9.1260983
 Leave Link  202 at Wed May 26 14:24:57 2021, MaxMem=   33554432 cpu:       0.0
 (Enter /home/emil/gauss09/g09/l301.exe)
 Standard basis: 6-31G (6D, 7F)
 Ernie: Thresh=  0.10000D-02 Tol=  0.10000D-05 Strict=F.
 There are    27 symmetry adapted basis functions of A'  symmetry.
 There are     8 symmetry adapted basis functions of A"  symmetry.
 Integral buffers will be    131072 words long.
 Raffenetti 1 integral format.
 Two-electron integral symmetry is turned on.
    35 basis functions,    82 primitive gaussians,    35 cartesian basis functions
    12 alpha electrons       12 beta electrons
       nuclear repulsion energy        69.8021607390 Hartrees.
 IExCor=    0 DFT=F Ex=HF Corr=None ExCW=0 ScaHFX=  1.000000
 ScaDFX=  1.000000  1.000000  1.000000  1.000000 ScalE2=  1.000000  1.000000
 IRadAn=      0 IRanWt=     -1 IRanGd=            0 ICorTp=0
 NAtoms=    7 NActive=    7 NUniq=    6 SFac= 1.36D+00 NAtFMM=   50 NAOKFM=F Big=F
 Leave Link  301 at Wed May 26 14:24:57 2021, MaxMem=   33554432 cpu:       0.0
 (Enter /home/emil/gauss09/g09/l302.exe)
 NPDir=0 NMtPBC=     1 NCelOv=     1 NCel=       1 NClECP=     1 NCelD=      1
         NCelK=      1 NCelE2=     1 NClLst=     1 CellRange=     0.0.
 One-electron integrals computed using PRISM.
 One-electron integral symmetry used in STVInt
 NBasis=    35 RedAO= T  NBF=    27     8
 NBsUse=    35 1.00D-06 NBFU=    27     8
 Leave Link  302 at Wed May 26 14:24:57 2021, MaxMem=   33554432 cpu:       0.1
 (Enter /home/emil/gauss09/g09/l303.exe)
 DipDrv:  MaxL=1.
 Leave Link  303 at Wed May 26 14:24:57 2021, MaxMem=   33554432 cpu:       0.0
 (Enter /home/emil/gauss09/g09/l401.exe)
 Harris functional with IExCor=  205 diagonalized for initial guess.
 ExpMin= 1.61D-01 ExpMax= 5.48D+03 ExpMxC= 8.25D+02 IAcc=1 IRadAn=         1 AccDes= 0.00D+00
 HarFok:  IExCor=  205 AccDes= 0.00D+00 IRadAn=         1 IDoV= 1
 ScaDFX=  1.000000  1.000000  1.000000  1.000000
 FoFCou: FMM=F IPFlag=           0 FMFlag=      100000 FMFlg1=           0
         NFxFlg=           0 DoJE=T BraDBF=F KetDBF=T FulRan=T
         Omega=  0.000000  0.000000  1.000000  0.000000  0.000000 ICntrl=     500 IOpCl=  0
         NMat0=    1 NMatS0=    1 NMatT0=    0 NMatD0=    1 NMtDS0=    0 NMtDT0=    0
         I1Cent=           4 NGrid=           0.
 Petite list used in FoFCou.
 Harris En= -153.046185212390    
 Initial guess orbital symmetries:
       Occupied  (A') (A') (A') (A') (A') (A') (A') (A') (A") (A')
                 (A") (A')
       Virtual   (A") (A') (A') (A') (A") (A') (A') (A') (A") (A')
                 (A") (A') (A') (A') (A') (A") (A') (A') (A") (A')
                 (A') (A') (A')
 The electronic state of the initial guess is 1-A'.
 Leave Link  401 at Wed May 26 14:24:57 2021, MaxMem=   33554432 cpu:       0.2
 (Enter /home/emil/gauss09/g09/l502.exe)
 Closed shell SCF:
 Requested convergence on RMS density matrix=1.00D-08 within 128 cycles.
 Requested convergence on MAX density matrix=1.00D-06.
 Requested convergence on             energy=1.00D-06.
 No special actions if energy rises.
 Using DIIS extrapolation, IDIIS=  1040.
 Integral symmetry usage will be decided dynamically.
 Keep R1 ints in memory in canonical form, NReq=1021138.
 IEnd=       22359 IEndB=       22359 NGot=    33554432 MDV=    33351181
 LenX=    33351181 LenY=    33349515
 Symmetry not used in FoFDir.
 MinBra= 0 MaxBra= 1 Meth= 1.
 IRaf=       0 NMat=   1 IRICut=       1 DoRegI=T DoRafI=F ISym2E= 0 JSym2E=0.

 Cycle   1  Pass 1  IDiag  1:
 E= -152.720935023596    
 DIIS: error= 6.33D-02 at cycle   1 NSaved=   1.
 NSaved= 1 IEnMin= 1 EnMin= -152.720935023596     IErMin= 1 ErrMin= 6.33D-02
 ErrMax= 6.33D-02 EMaxC= 1.00D-01 BMatC= 1.44D-01 BMatP= 1.44D-01
 IDIUse=3 WtCom= 3.67D-01 WtEn= 6.33D-01
 Coeff-Com:  0.100D+01
 Coeff-En:   0.100D+01
 Coeff:      0.100D+01
 Gap=     0.533 Goal=   None    Shift=    0.000
 GapD=    0.533 DampG=2.000 DampE=0.500 DampFc=1.0000 IDamp=-1.
 RMSDP=1.17D-02 MaxDP=1.08D-01              OVMax= 1.11D-01

 Cycle   2  Pass 1  IDiag  1:
 E= -152.819191052124     Delta-E=       -0.098256028528 Rises=F Damp=F
 DIIS: error= 2.09D-02 at cycle   2 NSaved=   2.
 NSaved= 2 IEnMin= 2 EnMin= -152.819191052124     IErMin= 2 ErrMin= 2.09D-02
 ErrMax= 2.09D-02 EMaxC= 1.00D-01 BMatC= 2.91D-02 BMatP= 1.44D-01
 IDIUse=3 WtCom= 7.91D-01 WtEn= 2.09D-01
 Coeff-Com:  0.280D+00 0.720D+00
 Coeff-En:   0.000D+00 0.100D+01
 Coeff:      0.221D+00 0.779D+00
 Gap=     0.577 Goal=   None    Shift=    0.000
 RMSDP=5.62D-03 MaxDP=5.24D-02 DE=-9.83D-02 OVMax= 3.57D-02

 Cycle   3  Pass 1  IDiag  1:
 E= -152.840637825466     Delta-E=       -0.021446773342 Rises=F Damp=F
 DIIS: error= 9.77D-03 at cycle   3 NSaved=   3.
 NSaved= 3 IEnMin= 3 EnMin= -152.840637825466     IErMin= 3 ErrMin= 9.77D-03
 ErrMax= 9.77D-03 EMaxC= 1.00D-01 BMatC= 2.31D-03 BMatP= 2.91D-02
 IDIUse=3 WtCom= 9.02D-01 WtEn= 9.77D-02
 Coeff-Com:  0.173D-01 0.212D+00 0.771D+00
 Coeff-En:   0.000D+00 0.000D+00 0.100D+01
 Coeff:      0.156D-01 0.191D+00 0.794D+00
 Gap=     0.563 Goal=   None    Shift=    0.000
 RMSDP=1.20D-03 MaxDP=1.69D-02 DE=-2.14D-02 OVMax= 2.29D-02

 Cycle   4  Pass 1  IDiag  1:
 E= -152.842428656022     Delta-E=       -0.001790830557 Rises=F Damp=F
 DIIS: error= 2.84D-03 at cycle   4 NSaved=   4.
 NSaved= 4 IEnMin= 4 EnMin= -152.842428656022     IErMin= 4 ErrMin= 2.84D-03
 ErrMax= 2.84D-03 EMaxC= 1.00D-01 BMatC= 3.10D-04 BMatP= 2.31D-03
 IDIUse=3 WtCom= 9.72D-01 WtEn= 2.84D-02
 Coeff-Com: -0.149D-01-0.569D-03 0.290D+00 0.725D+00
 Coeff-En:   0.000D+00 0.000D+00 0.000D+00 0.100D+01
 Coeff:     -0.144D-01-0.553D-03 0.282D+00 0.733D+00
 Gap=     0.567 Goal=   None    Shift=    0.000
 RMSDP=5.95D-04 MaxDP=4.32D-03 DE=-1.79D-03 OVMax= 3.99D-03

 Cycle   5  Pass 1  IDiag  1:
 E= -152.842695811002     Delta-E=       -0.000267154980 Rises=F Damp=F
 DIIS: error= 7.55D-04 at cycle   5 NSaved=   5.
 NSaved= 5 IEnMin= 5 EnMin= -152.842695811002     IErMin= 5 ErrMin= 7.55D-04
 ErrMax= 7.55D-04 EMaxC= 1.00D-01 BMatC= 8.04D-06 BMatP= 3.10D-04
 IDIUse=3 WtCom= 9.92D-01 WtEn= 7.55D-03
 Coeff-Com:  0.443D-02-0.151D-01-0.139D+00-0.296D+00 0.145D+01
 Coeff-En:   0.000D+00 0.000D+00 0.000D+00 0.000D+00 0.100D+01
 Coeff:      0.439D-02-0.150D-01-0.138D+00-0.294D+00 0.144D+01
 Gap=     0.569 Goal=   None    Shift=    0.000
 RMSDP=3.04D-04 MaxDP=2.35D-03 DE=-2.67D-04 OVMax= 3.49D-03

 Cycle   6  Pass 1  IDiag  1:
 E= -152.842723119955     Delta-E=       -0.000027308953 Rises=F Damp=F
 DIIS: error= 1.81D-04 at cycle   6 NSaved=   6.
 NSaved= 6 IEnMin= 6 EnMin= -152.842723119955     IErMin= 6 ErrMin= 1.81D-04
 ErrMax= 1.81D-04 EMaxC= 1.00D-01 BMatC= 9.23D-07 BMatP= 8.04D-06
 IDIUse=3 WtCom= 9.98D-01 WtEn= 1.81D-03
 Coeff-Com:  0.355D-03 0.111D-02 0.150D-02-0.344D-01-0.127D+00 0.116D+01
 Coeff-En:   0.000D+00 0.000D+00 0.000D+00 0.000D+00 0.000D+00 0.100D+01
 Coeff:      0.354D-03 0.111D-02 0.150D-02-0.343D-01-0.127D+00 0.116D+01
 Gap=     0.569 Goal=   None    Shift=    0.000
 RMSDP=7.61D-05 MaxDP=5.52D-04 DE=-2.73D-05 OVMax= 9.26D-04

 Cycle   7  Pass 1  IDiag  1:
 E= -152.842725593031     Delta-E=       -0.000002473076 Rises=F Damp=F
 DIIS: error= 1.05D-04 at cycle   7 NSaved=   7.
 NSaved= 7 IEnMin= 7 EnMin= -152.842725593031     IErMin= 7 ErrMin= 1.05D-04
 ErrMax= 1.05D-04 EMaxC= 1.00D-01 BMatC= 1.67D-07 BMatP= 9.23D-07
 IDIUse=3 WtCom= 9.99D-01 WtEn= 1.05D-03
 Coeff-Com: -0.946D-03 0.313D-02 0.327D-01 0.572D-01-0.278D+00-0.145D+00
 Coeff-Com:  0.133D+01
 Coeff-En:   0.000D+00 0.000D+00 0.000D+00 0.000D+00 0.000D+00 0.000D+00
 Coeff-En:   0.100D+01
 Coeff:     -0.945D-03 0.313D-02 0.326D-01 0.572D-01-0.278D+00-0.145D+00
 Coeff:      0.133D+01
 Gap=     0.569 Goal=   None    Shift=    0.000
 RMSDP=3.55D-05 MaxDP=2.57D-04 DE=-2.47D-06 OVMax= 4.50D-04

 Cycle   8  Pass 1  IDiag  1:
 E= -152.842726032962     Delta-E=       -0.000000439931 Rises=F Damp=F
 DIIS: error= 1.77D-05 at cycle   8 NSaved=   8.
 NSaved= 8 IEnMin= 8 EnMin= -152.842726032962     IErMin= 8 ErrMin= 1.77D-05
 ErrMax= 1.77D-05 EMaxC= 1.00D-01 BMatC= 4.17D-09 BMatP= 1.67D-07
 IDIUse=1 WtCom= 1.00D+00 WtEn= 0.00D+00
 Coeff-Com:  0.347D-03-0.132D-02-0.126D-01-0.224D-01 0.119D+00 0.140D-01
 Coeff-Com: -0.558D+00 0.146D+01
 Coeff:      0.347D-03-0.132D-02-0.126D-01-0.224D-01 0.119D+00 0.140D-01
 Coeff:     -0.558D+00 0.146D+01
 Gap=     0.569 Goal=   None    Shift=    0.000
 RMSDP=5.09D-06 MaxDP=4.39D-05 DE=-4.40D-07 OVMax= 4.52D-05

 Cycle   9  Pass 1  IDiag  1:
 E= -152.842726043113     Delta-E=       -0.000000010150 Rises=F Damp=F
 DIIS: error= 2.10D-06 at cycle   9 NSaved=   9.
 NSaved= 9 IEnMin= 9 EnMin= -152.842726043113     IErMin= 9 ErrMin= 2.10D-06
 ErrMax= 2.10D-06 EMaxC= 1.00D-01 BMatC= 7.02D-11 BMatP= 4.17D-09
 IDIUse=1 WtCom= 1.00D+00 WtEn= 0.00D+00
 Coeff-Com: -0.416D-04 0.165D-03 0.161D-02 0.259D-02-0.156D-01 0.942D-03
 Coeff-Com:  0.761D-01-0.287D+00 0.122D+01
 Coeff:     -0.416D-04 0.165D-03 0.161D-02 0.259D-02-0.156D-01 0.942D-03
 Coeff:      0.761D-01-0.287D+00 0.122D+01
 Gap=     0.569 Goal=   None    Shift=    0.000
 RMSDP=4.88D-07 MaxDP=4.84D-06 DE=-1.02D-08 OVMax= 3.17D-06

 Cycle  10  Pass 1  IDiag  1:
 E= -152.842726043229     Delta-E=       -0.000000000116 Rises=F Damp=F
 DIIS: error= 1.36D-07 at cycle  10 NSaved=  10.
 NSaved=10 IEnMin=10 EnMin= -152.842726043229     IErMin=10 ErrMin= 1.36D-07
 ErrMax= 1.36D-07 EMaxC= 1.00D-01 BMatC= 1.21D-12 BMatP= 7.02D-11
 IDIUse=1 WtCom= 1.00D+00 WtEn= 0.00D+00
 Coeff-Com:  0.308D-05-0.129D-04-0.133D-03-0.143D-03 0.130D-02-0.318D-03
 Coeff-Com: -0.718D-02 0.400D-01-0.307D+00 0.127D+01
 Coeff:      0.308D-05-0.129D-04-0.133D-03-0.143D-03 0.130D-02-0.318D-03
 Coeff:     -0.718D-02 0.400D-01-0.307D+00 0.127D+01
 Gap=     0.569 Goal=   None    Shift=    0.000
 RMSDP=1.12D-07 MaxDP=8.13D-07 DE=-1.16D-10 OVMax= 6.99D-07

 Cycle  11  Pass 1  IDiag  1:
 E= -152.842726043232     Delta-E=       -0.000000000003 Rises=F Damp=F
 DIIS: error= 1.75D-08 at cycle  11 NSaved=  11.
 NSaved=11 IEnMin=11 EnMin= -152.842726043232     IErMin=11 ErrMin= 1.75D-08
 ErrMax= 1.75D-08 EMaxC= 1.00D-01 BMatC= 1.79D-14 BMatP= 1.21D-12
 IDIUse=1 WtCom= 1.00D+00 WtEn= 0.00D+00
 Coeff-Com: -0.289D-08 0.372D-07 0.424D-05-0.101D-04-0.431D-04 0.820D-04
 Coeff-Com:  0.286D-03-0.407D-02 0.470D-01-0.279D+00 0.124D+01
 Coeff:     -0.289D-08 0.372D-07 0.424D-05-0.101D-04-0.431D-04 0.820D-04
 Coeff:      0.286D-03-0.407D-02 0.470D-01-0.279D+00 0.124D+01
 Gap=     0.569 Goal=   None    Shift=    0.000
 RMSDP=1.29D-08 MaxDP=8.08D-08 DE=-3.24D-12 OVMax= 7.27D-08

 Cycle  12  Pass 1  IDiag  1:
 E= -152.842726043232     Delta-E=        0.000000000000 Rises=F Damp=F
 DIIS: error= 3.58D-09 at cycle  12 NSaved=  12.
 NSaved=12 IEnMin=12 EnMin= -152.842726043232     IErMin=12 ErrMin= 3.58D-09
 ErrMax= 3.58D-09 EMaxC= 1.00D-01 BMatC= 3.14D-16 BMatP= 1.79D-14
 IDIUse=1 WtCom= 1.00D+00 WtEn= 0.00D+00
 Coeff-Com: -0.383D-07 0.156D-06 0.855D-06 0.353D-05-0.829D-05-0.829D-05
 Coeff-Com:  0.339D-04 0.198D-03-0.431D-02 0.348D-01-0.254D+00 0.122D+01
 Coeff:     -0.383D-07 0.156D-06 0.855D-06 0.353D-05-0.829D-05-0.829D-05
 Coeff:      0.339D-04 0.198D-03-0.431D-02 0.348D-01-0.254D+00 0.122D+01
 Gap=     0.569 Goal=   None    Shift=    0.000
 RMSDP=1.72D-09 MaxDP=1.38D-08 DE=-5.68D-14 OVMax= 1.00D-08

 SCF Done:  E(RHF) =  -152.842726043     A.U. after   12 cycles
             Convg  =    0.1718D-08             -V/T =  1.9996
 KE= 1.529021089261D+02 PE=-4.985460373997D+02 EE= 1.229990416913D+02
 Leave Link  502 at Wed May 26 14:24:57 2021, MaxMem=   33554432 cpu:       0.1
 (Enter /home/emil/gauss09/g09/l601.exe)
 Copying SCF densities to generalized density rwf, IOpCl= 0 IROHF=0.

 **********************************************************************

            Population analysis using the SCF density.

 **********************************************************************

 Orbital symmetries:
       Occupied  (A') (A') (A') (A') (A') (A') (A') (A') (A") (A')
                 (A") (A')
       Virtual   (A") (A') (A') (A') (A") (A') (A') (A") (A') (A')
                 (A") (A') (A') (A') (A') (A") (A') (A') (A') (A")
                 (A') (A') (A')
 The electronic state is 1-A'.
 Alpha  occ. eigenvalues --  -20.57549 -11.34936 -11.24436  -1.42017  -1.02853
 Alpha  occ. eigenvalues --   -0.80600  -0.67945  -0.62406  -0.60901  -0.56204
 Alpha  occ. eigenvalues --   -0.50081  -0.42366
 Alpha virt. eigenvalues --    0.14584   0.24302   0.27146   0.29772   0.29913
 Alpha virt. eigenvalues --    0.41301   0.44343   0.74816   0.78329   0.80640
 Alpha virt. eigenvalues --    0.81481   0.92579   0.98981   1.01229   1.14731
 Alpha virt. eigenvalues --    1.17163   1.21402   1.23150   1.27215   1.30260
 Alpha virt. eigenvalues --    1.40747   1.52476   1.99485
          Condensed to atoms (all electrons):
              1          2          3          4          5          6
     1  O    8.168282   0.469078  -0.063331  -0.090758   0.005437   0.001714
     2  C    0.469078   4.695596   0.377715   0.232245  -0.035218  -0.033319
     3  H   -0.063331   0.377715   0.627799  -0.100549   0.004209   0.002936
     4  C   -0.090758   0.232245  -0.100549   5.418146   0.369677   0.365989
     5  H    0.005437  -0.035218   0.004209   0.369677   0.488030  -0.018914
     6  H    0.001714  -0.033319   0.002936   0.365989  -0.018914   0.522015
     7  H    0.001714  -0.033319   0.002936   0.365989  -0.018914  -0.026258
              7
     1  O    0.001714
     2  C   -0.033319
     3  H    0.002936
     4  C    0.365989
     5  H   -0.018914
     6  H   -0.026258
     7  H    0.522015
 Mulliken atomic charges:
              1
     1  O   -0.492136
     2  C    0.327222
     3  H    0.148285
     4  C   -0.560738
     5  H    0.205693
     6  H    0.185837
     7  H    0.185837
 Sum of Mulliken atomic charges =   0.00000
 Mulliken charges with hydrogens summed into heavy atoms:
              1
     1  O   -0.492136
     2  C    0.475507
     4  C    0.016628
 Sum of Mulliken charges with hydrogens summed into heavy atoms =   0.00000
 Electronic spatial extent (au):  <R**2>=            167.9028
 Charge=              0.0000 electrons
 Dipole moment (field-independent basis, Debye):
    X=             -3.3777    Y=             -0.1918    Z=              0.0000  Tot=              3.3831
 Quadrupole moment (field-independent basis, Debye-Ang):
   XX=            -22.1768   YY=            -17.8189   ZZ=            -18.0148
   XY=             -1.1323   XZ=              0.0000   YZ=              0.0000
 Traceless Quadrupole moment (field-independent basis, Debye-Ang):
   XX=             -2.8400   YY=              1.5179   ZZ=              1.3220
   XY=             -1.1323   XZ=              0.0000   YZ=              0.0000
 Octapole moment (field-independent basis, Debye-Ang**2):
  XXX=             -2.9412  YYY=              1.1307  ZZZ=              0.0000  XYY=              0.4965
  XXY=             -1.3241  XXZ=              0.0000  XZZ=              0.5083  YZZ=              0.5282
  YYZ=              0.0000  XYZ=              0.0000
 Hexadecapole moment (field-independent basis, Debye-Ang**3):
 XXXX=           -122.7057 YYYY=            -66.5557 ZZZZ=            -22.6649 XXXY=            -24.4612
 XXXZ=              0.0000 YYYX=            -24.6122 YYYZ=              0.0000 ZZZX=              0.0000
 ZZZY=              0.0000 XXYY=            -32.7900 XXZZ=            -21.3223 YYZZ=            -16.0005
 XXYZ=              0.0000 YYXZ=              0.0000 ZZXY=             -7.0593
 N-N= 6.980216073903D+01 E-N=-4.985460374012D+02  KE= 1.529021089261D+02
 Symmetry A'   KE= 1.474900674655D+02
 Symmetry A"   KE= 5.412041460519D+00
 No NMR shielding tensors so no spin-rotation constants.
 Leave Link  601 at Wed May 26 14:24:58 2021, MaxMem=   33554432 cpu:       0.1
 (Enter /home/emil/gauss09/g09/l9999.exe)
 1\1\GINC-KONG-SRV\SP\RHF\6-31G\C2H4O1\EMIL\26-May-2021\0\\#P HF/6-31G\
 \CH3CHO\\0,1\O\C,1,1.20630769\H,2,1.1050463,1,120.13507854\C,2,1.50205
 03,1,124.49388144,3,180.,0\H,4,1.08660118,2,110.69462735,1,0.,0\H,4,1.
 09152474,2,109.45253129,1,121.4820099,0\H,4,1.09152474,2,109.45253129,
 1,-121.4820099,0\\Version=EM64L-G09RevB.01\State=1-A'\HF=-152.842726\R
 MSD=1.718e-09\Dipole=-0.1666167,0.,1.3205554\Quadrupole=0.997806,0.982
 8847,-1.9806907,0.,1.0560313,0.\PG=CS [SG(C2H2O1),X(H2)]\\@


 I KNOW YOU BELIEVE YOU UNDERSTAND WHAT YOU THINK I SAID,
 BUT I AM NOT SURE YOU REALIZE THAT WHAT YOU HEARD IS NOT WHAT I MEANT.
 Job cpu time:  0 days  0 hours  0 minutes  0.7 seconds.
 File lengths (MBytes):  RWF=      5 Int=      0 D2E=      0 Chk=      1 Scr=      1
 Normal termination of Gaussian 09 at Wed May 26 14:24:58 2021.
