 Entering Gaussian System, Link 0=g09
 Input=CH4.com
 Output=CH4.log
 Initial command:
 /home/emil/gauss09/g09/l1.exe /home/emil/scratch/g09/Gau-9982.inp -scrdir=/home/emil/scratch/g09/
 Entering Link 1 = /home/emil/gauss09/g09/l1.exe PID=      9984.
  
 Copyright (c) 1988,1990,1992,1993,1995,1998,2003,2009,2010,
            Gaussian, Inc.  All Rights Reserved.
  
 This is part of the Gaussian(R) 09 program.  It is based on
 the Gaussian(R) 03 system (copyright 2003, Gaussian, Inc.),
 the Gaussian(R) 98 system (copyright 1998, Gaussian, Inc.),
 the Gaussian(R) 94 system (copyright 1995, Gaussian, Inc.),
 the Gaussian 92(TM) system (copyright 1992, Gaussian, Inc.),
 the Gaussian 90(TM) system (copyright 1990, Gaussian, Inc.),
 the Gaussian 88(TM) system (copyright 1988, Gaussian, Inc.),
 the Gaussian 86(TM) system (copyright 1986, Carnegie Mellon
 University), and the Gaussian 82(TM) system (copyright 1983,
 Carnegie Mellon University). Gaussian is a federally registered
 trademark of Gaussian, Inc.
  
 This software contains proprietary and confidential information,
 including trade secrets, belonging to Gaussian, Inc.
  
 This software is provided under written license and may be
 used, copied, transmitted, or stored only in accord with that
 written license.
  
 The following legend is applicable only to US Government
 contracts under FAR:
  
                    RESTRICTED RIGHTS LEGEND
  
 Use, reproduction and disclosure by the US Government is
 subject to restrictions as set forth in subparagraphs (a)
 and (c) of the Commercial Computer Software - Restricted
 Rights clause in FAR 52.227-19.
  
 Gaussian, Inc.
 340 Quinnipiac St., Bldg. 40, Wallingford CT 06492
  
  
 ---------------------------------------------------------------
 Warning -- This program may not be used in any manner that
 competes with the business of Gaussian, Inc. or will provide
 assistance to any competitor of Gaussian, Inc.  The licensee
 of this program is prohibited from giving any competitor of
 Gaussian, Inc. access to this program.  By using this program,
 the user acknowledges that Gaussian, Inc. is engaged in the
 business of creating and licensing software in the field of
 computational chemistry and represents and warrants to the
 licensee that it is not a competitor of Gaussian, Inc. and that
 it will not use this program in any manner prohibited above.
 ---------------------------------------------------------------
  

 Cite this work as:
 Gaussian 09, Revision B.01,
 M. J. Frisch, G. W. Trucks, H. B. Schlegel, G. E. Scuseria, 
 M. A. Robb, J. R. Cheeseman, G. Scalmani, V. Barone, B. Mennucci, 
 G. A. Petersson, H. Nakatsuji, M. Caricato, X. Li, H. P. Hratchian, 
 A. F. Izmaylov, J. Bloino, G. Zheng, J. L. Sonnenberg, M. Hada, 
 M. Ehara, K. Toyota, R. Fukuda, J. Hasegawa, M. Ishida, T. Nakajima, 
 Y. Honda, O. Kitao, H. Nakai, T. Vreven, J. A. Montgomery, Jr., 
 J. E. Peralta, F. Ogliaro, M. Bearpark, J. J. Heyd, E. Brothers, 
 K. N. Kudin, V. N. Staroverov, T. Keith, R. Kobayashi, J. Normand, 
 K. Raghavachari, A. Rendell, J. C. Burant, S. S. Iyengar, J. Tomasi, 
 M. Cossi, N. Rega, J. M. Millam, M. Klene, J. E. Knox, J. B. Cross, 
 V. Bakken, C. Adamo, J. Jaramillo, R. Gomperts, R. E. Stratmann, 
 O. Yazyev, A. J. Austin, R. Cammi, C. Pomelli, J. W. Ochterski, 
 R. L. Martin, K. Morokuma, V. G. Zakrzewski, G. A. Voth, 
 P. Salvador, J. J. Dannenberg, S. Dapprich, A. D. Daniels, 
 O. Farkas, J. B. Foresman, J. V. Ortiz, J. Cioslowski, 
 and D. J. Fox, Gaussian, Inc., Wallingford CT, 2010.
 
 ******************************************
 Gaussian 09:  EM64L-G09RevB.01 12-Aug-2010
                26-May-2021 
 ******************************************
 -----------
 #P HF/6-31G
 -----------
 1/38=1/1;
 2/12=2,17=6,18=5,40=1/2;
 3/5=1,6=6,11=9,16=1,25=1,30=1/1,2,3;
 4//1;
 5/5=2,38=5/2;
 6/7=2,8=2,9=2,10=2,28=1/1;
 99/5=1,9=1/99;
 Leave Link    1 at Wed May 26 14:26:43 2021, MaxMem=          0 cpu:       0.0
 (Enter /home/emil/gauss09/g09/l101.exe)
 ---
 CH4
 ---
 Symbolic Z-matrix:
 Charge =  0 Multiplicity = 1
 C
 H                    1    RCH
 H                    1    RCH      2     109.47122 
 H                    1    RCH      2     109.47122  3     109.47122  1
 H                    1    RCH      2     109.47122  3     109.47122  -1
       Variables:
  RCH                   1.08745                  
 
     5 tetrahedral angles replaced.
 NAtoms=      5 NQM=      5 NQMF=      0 NMic=      0 NMicF=      0 NTot=      5.
    5 tetrahedral angles replaced.
                    Isotopes and Nuclear Properties:
 (Nuclear quadrupole moments (NQMom) in fm**2, nuclear magnetic moments (NMagM)
  in nuclear magnetons)

  Atom         1           2           3           4           5
 IAtWgt=          12           1           1           1           1
 AtmWgt=  12.0000000   1.0078250   1.0078250   1.0078250   1.0078250
 NucSpn=           0           1           1           1           1
 AtZEff=   0.0000000   0.0000000   0.0000000   0.0000000   0.0000000
 NQMom=    0.0000000   0.0000000   0.0000000   0.0000000   0.0000000
 NMagM=    0.0000000   2.7928460   2.7928460   2.7928460   2.7928460
 Leave Link  101 at Wed May 26 14:26:43 2021, MaxMem=   33554432 cpu:       0.1
 (Enter /home/emil/gauss09/g09/l202.exe)
                          Input orientation:                          
 ---------------------------------------------------------------------
 Center     Atomic      Atomic             Coordinates (Angstroms)
 Number     Number       Type             X           Y           Z
 ---------------------------------------------------------------------
      1          6           0        0.000000    0.000000    0.000000
      2          1           0        0.000000    0.000000    1.087445
      3          1           0        1.025253    0.000000   -0.362482
      4          1           0       -0.512627    0.887895   -0.362482
      5          1           0       -0.512627   -0.887895   -0.362482
 ---------------------------------------------------------------------
                    Distance matrix (angstroms):
                    1          2          3          4          5
     1  C    0.000000
     2  H    1.087445   0.000000
     3  H    1.087445   1.775791   0.000000
     4  H    1.087445   1.775791   1.775791   0.000000
     5  H    1.087445   1.775791   1.775791   1.775791   0.000000
 Stoichiometry    CH4
 Framework group  TD[O(C),4C3(H)]
 Deg. of freedom     1
 Full point group                 TD      NOp  24
 Largest Abelian subgroup         D2      NOp   4
 Largest concise Abelian subgroup D2      NOp   4
                         Standard orientation:                         
 ---------------------------------------------------------------------
 Center     Atomic      Atomic             Coordinates (Angstroms)
 Number     Number       Type             X           Y           Z
 ---------------------------------------------------------------------
      1          6           0        0.000000    0.000000    0.000000
      2          1           0        0.627837    0.627837    0.627837
      3          1           0       -0.627837   -0.627837    0.627837
      4          1           0        0.627837   -0.627837   -0.627837
      5          1           0       -0.627837    0.627837   -0.627837
 ---------------------------------------------------------------------
 Rotational constants (GHZ):    159.0188408    159.0188408    159.0188408
 Leave Link  202 at Wed May 26 14:26:43 2021, MaxMem=   33554432 cpu:       0.0
 (Enter /home/emil/gauss09/g09/l301.exe)
 Standard basis: 6-31G (6D, 7F)
 Ernie: Thresh=  0.10000D-02 Tol=  0.10000D-05 Strict=F.
 There are     5 symmetry adapted basis functions of A   symmetry.
 There are     4 symmetry adapted basis functions of B1  symmetry.
 There are     4 symmetry adapted basis functions of B2  symmetry.
 There are     4 symmetry adapted basis functions of B3  symmetry.
 Integral buffers will be    131072 words long.
 Raffenetti 1 integral format.
 Two-electron integral symmetry is turned on.
    17 basis functions,    38 primitive gaussians,    17 cartesian basis functions
     5 alpha electrons        5 beta electrons
       nuclear repulsion energy        13.4669541297 Hartrees.
 IExCor=    0 DFT=F Ex=HF Corr=None ExCW=0 ScaHFX=  1.000000
 ScaDFX=  1.000000  1.000000  1.000000  1.000000 ScalE2=  1.000000  1.000000
 IRadAn=      0 IRanWt=     -1 IRanGd=            0 ICorTp=0
 NAtoms=    5 NActive=    5 NUniq=    2 SFac= 4.00D+00 NAtFMM=   50 NAOKFM=F Big=F
 Leave Link  301 at Wed May 26 14:26:43 2021, MaxMem=   33554432 cpu:       0.0
 (Enter /home/emil/gauss09/g09/l302.exe)
 NPDir=0 NMtPBC=     1 NCelOv=     1 NCel=       1 NClECP=     1 NCelD=      1
         NCelK=      1 NCelE2=     1 NClLst=     1 CellRange=     0.0.
 One-electron integrals computed using PRISM.
 One-electron integral symmetry used in STVInt
 NBasis=    17 RedAO= T  NBF=     5     4     4     4
 NBsUse=    17 1.00D-06 NBFU=     5     4     4     4
 Leave Link  302 at Wed May 26 14:26:44 2021, MaxMem=   33554432 cpu:       0.1
 (Enter /home/emil/gauss09/g09/l303.exe)
 DipDrv:  MaxL=1.
 Leave Link  303 at Wed May 26 14:26:44 2021, MaxMem=   33554432 cpu:       0.0
 (Enter /home/emil/gauss09/g09/l401.exe)
 Harris functional with IExCor=  205 diagonalized for initial guess.
 ExpMin= 1.61D-01 ExpMax= 3.05D+03 ExpMxC= 4.57D+02 IAcc=1 IRadAn=         1 AccDes= 0.00D+00
 HarFok:  IExCor=  205 AccDes= 0.00D+00 IRadAn=         1 IDoV= 1
 ScaDFX=  1.000000  1.000000  1.000000  1.000000
 FoFCou: FMM=F IPFlag=           0 FMFlag=      100000 FMFlg1=           0
         NFxFlg=           0 DoJE=T BraDBF=F KetDBF=T FulRan=T
         Omega=  0.000000  0.000000  1.000000  0.000000  0.000000 ICntrl=     500 IOpCl=  0
         NMat0=    1 NMatS0=    1 NMatT0=    0 NMatD0=    1 NMtDS0=    0 NMtDT0=    0
         I1Cent=           4 NGrid=           0.
 Petite list used in FoFCou.
 Harris En= -40.3600810366710    
 Initial guess orbital symmetries:
       Occupied  (A1) (A1) (T2) (T2) (T2)
       Virtual   (A1) (T2) (T2) (T2) (T2) (T2) (T2) (T2) (T2) (T2)
                 (A1) (A1)
 The electronic state of the initial guess is 1-A1.
 Leave Link  401 at Wed May 26 14:26:44 2021, MaxMem=   33554432 cpu:       0.1
 (Enter /home/emil/gauss09/g09/l502.exe)
 Closed shell SCF:
 Requested convergence on RMS density matrix=1.00D-08 within 128 cycles.
 Requested convergence on MAX density matrix=1.00D-06.
 Requested convergence on             energy=1.00D-06.
 No special actions if energy rises.
 Using DIIS extrapolation, IDIIS=  1040.
 Integral symmetry usage will be decided dynamically.
 Keep R1 ints in memory in canonical form, NReq=831858.
 IEnd=       20063 IEndB=       20063 NGot=    33554432 MDV=    33539663
 LenX=    33539663 LenY=    33538781
 Symmetry not used in FoFDir.
 MinBra= 0 MaxBra= 1 Meth= 1.
 IRaf=       0 NMat=   1 IRICut=       1 DoRegI=T DoRafI=F ISym2E= 0 JSym2E=0.

 Cycle   1  Pass 1  IDiag  1:
 E= -40.0638969748647    
 DIIS: error= 8.14D-02 at cycle   1 NSaved=   1.
 NSaved= 1 IEnMin= 1 EnMin= -40.0638969748647     IErMin= 1 ErrMin= 8.14D-02
 ErrMax= 8.14D-02 EMaxC= 1.00D-01 BMatC= 1.11D-01 BMatP= 1.11D-01
 IDIUse=3 WtCom= 1.86D-01 WtEn= 8.14D-01
 Coeff-Com:  0.100D+01
 Coeff-En:   0.100D+01
 Coeff:      0.100D+01
 Gap=     0.725 Goal=   None    Shift=    0.000
 GapD=    0.725 DampG=2.000 DampE=0.500 DampFc=1.0000 IDamp=-1.
 RMSDP=2.01D-02 MaxDP=1.29D-01              OVMax= 1.39D-01

 Cycle   2  Pass 1  IDiag  1:
 E= -40.1623732620858     Delta-E=       -0.098476287221 Rises=F Damp=F
 DIIS: error= 3.08D-02 at cycle   2 NSaved=   2.
 NSaved= 2 IEnMin= 2 EnMin= -40.1623732620858     IErMin= 2 ErrMin= 3.08D-02
 ErrMax= 3.08D-02 EMaxC= 1.00D-01 BMatC= 1.81D-02 BMatP= 1.11D-01
 IDIUse=3 WtCom= 6.92D-01 WtEn= 3.08D-01
 Coeff-Com:  0.276D+00 0.724D+00
 Coeff-En:   0.000D+00 0.100D+01
 Coeff:      0.191D+00 0.809D+00
 Gap=     0.808 Goal=   None    Shift=    0.000
 RMSDP=6.14D-03 MaxDP=3.76D-02 DE=-9.85D-02 OVMax= 3.72D-02

 Cycle   3  Pass 1  IDiag  1:
 E= -40.1801387312395     Delta-E=       -0.017765469154 Rises=F Damp=F
 DIIS: error= 4.31D-03 at cycle   3 NSaved=   3.
 NSaved= 3 IEnMin= 3 EnMin= -40.1801387312395     IErMin= 3 ErrMin= 4.31D-03
 ErrMax= 4.31D-03 EMaxC= 1.00D-01 BMatC= 2.83D-04 BMatP= 1.81D-02
 IDIUse=3 WtCom= 9.57D-01 WtEn= 4.31D-02
 Coeff-Com: -0.240D-01 0.625D-01 0.961D+00
 Coeff-En:   0.000D+00 0.000D+00 0.100D+01
 Coeff:     -0.229D-01 0.598D-01 0.963D+00
 Gap=     0.799 Goal=   None    Shift=    0.000
 RMSDP=8.82D-04 MaxDP=4.93D-03 DE=-1.78D-02 OVMax= 5.70D-03

 Cycle   4  Pass 1  IDiag  1:
 E= -40.1804736376590     Delta-E=       -0.000334906420 Rises=F Damp=F
 DIIS: error= 3.96D-04 at cycle   4 NSaved=   4.
 NSaved= 4 IEnMin= 4 EnMin= -40.1804736376590     IErMin= 4 ErrMin= 3.96D-04
 ErrMax= 3.96D-04 EMaxC= 1.00D-01 BMatC= 1.44D-06 BMatP= 2.83D-04
 IDIUse=3 WtCom= 9.96D-01 WtEn= 3.96D-03
 Coeff-Com:  0.852D-02-0.336D-01-0.374D+00 0.140D+01
 Coeff-En:   0.000D+00 0.000D+00 0.000D+00 0.100D+01
 Coeff:      0.849D-02-0.335D-01-0.373D+00 0.140D+01
 Gap=     0.799 Goal=   None    Shift=    0.000
 RMSDP=1.74D-04 MaxDP=7.55D-04 DE=-3.35D-04 OVMax= 5.75D-04

 Cycle   5  Pass 1  IDiag  1:
 E= -40.1804763025465     Delta-E=       -0.000002664887 Rises=F Damp=F
 DIIS: error= 9.31D-06 at cycle   5 NSaved=   5.
 NSaved= 5 IEnMin= 5 EnMin= -40.1804763025465     IErMin= 5 ErrMin= 9.31D-06
 ErrMax= 9.31D-06 EMaxC= 1.00D-01 BMatC= 1.97D-09 BMatP= 1.44D-06
 IDIUse=1 WtCom= 1.00D+00 WtEn= 0.00D+00
 Coeff-Com: -0.125D-02 0.498D-02 0.554D-01-0.235D+00 0.118D+01
 Coeff:     -0.125D-02 0.498D-02 0.554D-01-0.235D+00 0.118D+01
 Gap=     0.799 Goal=   None    Shift=    0.000
 RMSDP=9.65D-06 MaxDP=2.95D-05 DE=-2.66D-06 OVMax= 2.85D-05

 Cycle   6  Pass 1  IDiag  1:
 E= -40.1804763070649     Delta-E=       -0.000000004518 Rises=F Damp=F
 DIIS: error= 8.83D-07 at cycle   6 NSaved=   6.
 NSaved= 6 IEnMin= 6 EnMin= -40.1804763070649     IErMin= 6 ErrMin= 8.83D-07
 ErrMax= 8.83D-07 EMaxC= 1.00D-01 BMatC= 8.14D-12 BMatP= 1.97D-09
 IDIUse=1 WtCom= 1.00D+00 WtEn= 0.00D+00
 Coeff-Com:  0.774D-04-0.274D-03-0.322D-02 0.152D-01-0.113D+00 0.110D+01
 Coeff:      0.774D-04-0.274D-03-0.322D-02 0.152D-01-0.113D+00 0.110D+01
 Gap=     0.799 Goal=   None    Shift=    0.000
 RMSDP=3.41D-07 MaxDP=1.25D-06 DE=-4.52D-09 OVMax= 1.31D-06

 Cycle   7  Pass 1  IDiag  1:
 E= -40.1804763070788     Delta-E=       -0.000000000014 Rises=F Damp=F
 DIIS: error= 9.70D-08 at cycle   7 NSaved=   7.
 NSaved= 7 IEnMin= 7 EnMin= -40.1804763070788     IErMin= 7 ErrMin= 9.70D-08
 ErrMax= 9.70D-08 EMaxC= 1.00D-01 BMatC= 1.84D-13 BMatP= 8.14D-12
 IDIUse=1 WtCom= 1.00D+00 WtEn= 0.00D+00
 Coeff-Com: -0.599D-06-0.620D-05-0.221D-04-0.342D-03 0.110D-01-0.275D+00
 Coeff-Com:  0.126D+01
 Coeff:     -0.599D-06-0.620D-05-0.221D-04-0.342D-03 0.110D-01-0.275D+00
 Coeff:      0.126D+01
 Gap=     0.799 Goal=   None    Shift=    0.000
 RMSDP=8.12D-08 MaxDP=6.05D-07 DE=-1.39D-11 OVMax= 2.70D-07

 Cycle   8  Pass 1  IDiag  1:
 E= -40.1804763070792     Delta-E=        0.000000000000 Rises=F Damp=F
 DIIS: error= 5.96D-10 at cycle   8 NSaved=   8.
 NSaved= 8 IEnMin= 8 EnMin= -40.1804763070792     IErMin= 8 ErrMin= 5.96D-10
 ErrMax= 5.96D-10 EMaxC= 1.00D-01 BMatC= 8.02D-18 BMatP= 1.84D-13
 IDIUse=1 WtCom= 1.00D+00 WtEn= 0.00D+00
 Coeff-Com: -0.795D-07 0.466D-06 0.437D-05-0.138D-04-0.267D-04 0.385D-02
 Coeff-Com: -0.190D-01 0.102D+01
 Coeff:     -0.795D-07 0.466D-06 0.437D-05-0.138D-04-0.267D-04 0.385D-02
 Coeff:     -0.190D-01 0.102D+01
 Gap=     0.799 Goal=   None    Shift=    0.000
 RMSDP=3.88D-10 MaxDP=1.39D-09 DE=-3.98D-13 OVMax= 7.89D-10

 SCF Done:  E(RHF) =  -40.1804763071     A.U. after    8 cycles
             Convg  =    0.3879D-09             -V/T =  1.9989
 KE= 4.022371227560D+01 PE=-1.199501837560D+02 EE= 2.607904104356D+01
 Leave Link  502 at Wed May 26 14:26:44 2021, MaxMem=   33554432 cpu:       0.1
 (Enter /home/emil/gauss09/g09/l601.exe)
 Copying SCF densities to generalized density rwf, IOpCl= 0 IROHF=0.

 **********************************************************************

            Population analysis using the SCF density.

 **********************************************************************

 Orbital symmetries:
       Occupied  (A1) (A1) (T2) (T2) (T2)
       Virtual   (A1) (T2) (T2) (T2) (T2) (T2) (T2) (T2) (T2) (T2)
                 (A1) (A1)
 The electronic state is 1-A1.
 Alpha  occ. eigenvalues --  -11.20628  -0.94690  -0.54367  -0.54367  -0.54367
 Alpha virt. eigenvalues --    0.25516   0.32389   0.32389   0.32389   0.74262
 Alpha virt. eigenvalues --    0.74262   0.74262   1.22792   1.22792   1.22792
 Alpha virt. eigenvalues --    1.24352   1.32785
          Condensed to atoms (all electrons):
              1          2          3          4          5
     1  C    5.096227   0.381306   0.381306   0.381306   0.381306
     2  H    0.381306   0.547201  -0.027956  -0.027956  -0.027956
     3  H    0.381306  -0.027956   0.547201  -0.027956  -0.027956
     4  H    0.381306  -0.027956  -0.027956   0.547201  -0.027956
     5  H    0.381306  -0.027956  -0.027956  -0.027956   0.547201
 Mulliken atomic charges:
              1
     1  C   -0.621450
     2  H    0.155362
     3  H    0.155362
     4  H    0.155362
     5  H    0.155362
 Sum of Mulliken atomic charges =   0.00000
 Mulliken charges with hydrogens summed into heavy atoms:
              1
     1  C    0.000000
 Sum of Mulliken charges with hydrogens summed into heavy atoms =   0.00000
 Electronic spatial extent (au):  <R**2>=             35.7000
 Charge=              0.0000 electrons
 Dipole moment (field-independent basis, Debye):
    X=              0.0000    Y=              0.0000    Z=              0.0000  Tot=              0.0000
 Quadrupole moment (field-independent basis, Debye-Ang):
   XX=             -8.4326   YY=             -8.4326   ZZ=             -8.4326
   XY=              0.0000   XZ=              0.0000   YZ=              0.0000
 Traceless Quadrupole moment (field-independent basis, Debye-Ang):
   XX=              0.0000   YY=              0.0000   ZZ=              0.0000
   XY=              0.0000   XZ=              0.0000   YZ=              0.0000
 Octapole moment (field-independent basis, Debye-Ang**2):
  XXX=              0.0000  YYY=              0.0000  ZZZ=              0.0000  XYY=              0.0000
  XXY=              0.0000  XXZ=              0.0000  XZZ=              0.0000  YZZ=              0.0000
  YYZ=              0.0000  XYZ=              0.6287
 Hexadecapole moment (field-independent basis, Debye-Ang**3):
 XXXX=            -15.9549 YYYY=            -15.9549 ZZZZ=            -15.9549 XXXY=              0.0000
 XXXZ=              0.0000 YYYX=              0.0000 YYYZ=              0.0000 ZZZX=              0.0000
 ZZZY=              0.0000 XXYY=             -4.9112 XXZZ=             -4.9112 YYZZ=             -4.9112
 XXYZ=              0.0000 YYXZ=              0.0000 ZZXY=              0.0000
 N-N= 1.346695412974D+01 E-N=-1.199501837594D+02  KE= 4.022371227560D+01
 Symmetry A    KE= 3.453209334850D+01
 Symmetry B1   KE= 1.897206309033D+00
 Symmetry B2   KE= 1.897206309033D+00
 Symmetry B3   KE= 1.897206309033D+00
 No NMR shielding tensors so no spin-rotation constants.
 Leave Link  601 at Wed May 26 14:26:44 2021, MaxMem=   33554432 cpu:       0.1
 (Enter /home/emil/gauss09/g09/l9999.exe)
 1\1\GINC-KONG-SRV\SP\RHF\6-31G\C1H4\EMIL\26-May-2021\0\\#P HF/6-31G\\C
 H4\\0,1\C\H,1,1.08744517\H,1,1.08744517,2,109.47122063\H,1,1.08744517,
 2,109.47122063,3,109.47122063,1\H,1,1.08744517,2,109.47122063,3,109.47
 122063,-1\\Version=EM64L-G09RevB.01\State=1-A1\HF=-40.1804763\RMSD=3.8
 79e-10\Dipole=0.,0.,0.\Quadrupole=0.,0.,0.,0.,0.,0.\PG=TD [O(C1),4C3(H
 1)]\\@


 IMAGINATION WILL OFTEN CARRY US TO WORLDS THAT NEVER WERE.
 BUT WITHOUT IT, WE GO NOWHERE. -- CARL SAGAN (COSMOS)
 Job cpu time:  0 days  0 hours  0 minutes  0.6 seconds.
 File lengths (MBytes):  RWF=      5 Int=      0 D2E=      0 Chk=      1 Scr=      1
 Normal termination of Gaussian 09 at Wed May 26 14:26:44 2021.
