 Entering Gaussian System, Link 0=g09
 Input=CHCl3.com
 Output=CHCl3.log
 Initial command:
 /home/emil/gauss09/g09/l1.exe /home/emil/scratch/g09/Gau-9990.inp -scrdir=/home/emil/scratch/g09/
 Entering Link 1 = /home/emil/gauss09/g09/l1.exe PID=      9992.
  
 Copyright (c) 1988,1990,1992,1993,1995,1998,2003,2009,2010,
            Gaussian, Inc.  All Rights Reserved.
  
 This is part of the Gaussian(R) 09 program.  It is based on
 the Gaussian(R) 03 system (copyright 2003, Gaussian, Inc.),
 the Gaussian(R) 98 system (copyright 1998, Gaussian, Inc.),
 the Gaussian(R) 94 system (copyright 1995, Gaussian, Inc.),
 the Gaussian 92(TM) system (copyright 1992, Gaussian, Inc.),
 the Gaussian 90(TM) system (copyright 1990, Gaussian, Inc.),
 the Gaussian 88(TM) system (copyright 1988, Gaussian, Inc.),
 the Gaussian 86(TM) system (copyright 1986, Carnegie Mellon
 University), and the Gaussian 82(TM) system (copyright 1983,
 Carnegie Mellon University). Gaussian is a federally registered
 trademark of Gaussian, Inc.
  
 This software contains proprietary and confidential information,
 including trade secrets, belonging to Gaussian, Inc.
  
 This software is provided under written license and may be
 used, copied, transmitted, or stored only in accord with that
 written license.
  
 The following legend is applicable only to US Government
 contracts under FAR:
  
                    RESTRICTED RIGHTS LEGEND
  
 Use, reproduction and disclosure by the US Government is
 subject to restrictions as set forth in subparagraphs (a)
 and (c) of the Commercial Computer Software - Restricted
 Rights clause in FAR 52.227-19.
  
 Gaussian, Inc.
 340 Quinnipiac St., Bldg. 40, Wallingford CT 06492
  
  
 ---------------------------------------------------------------
 Warning -- This program may not be used in any manner that
 competes with the business of Gaussian, Inc. or will provide
 assistance to any competitor of Gaussian, Inc.  The licensee
 of this program is prohibited from giving any competitor of
 Gaussian, Inc. access to this program.  By using this program,
 the user acknowledges that Gaussian, Inc. is engaged in the
 business of creating and licensing software in the field of
 computational chemistry and represents and warrants to the
 licensee that it is not a competitor of Gaussian, Inc. and that
 it will not use this program in any manner prohibited above.
 ---------------------------------------------------------------
  

 Cite this work as:
 Gaussian 09, Revision B.01,
 M. J. Frisch, G. W. Trucks, H. B. Schlegel, G. E. Scuseria, 
 M. A. Robb, J. R. Cheeseman, G. Scalmani, V. Barone, B. Mennucci, 
 G. A. Petersson, H. Nakatsuji, M. Caricato, X. Li, H. P. Hratchian, 
 A. F. Izmaylov, J. Bloino, G. Zheng, J. L. Sonnenberg, M. Hada, 
 M. Ehara, K. Toyota, R. Fukuda, J. Hasegawa, M. Ishida, T. Nakajima, 
 Y. Honda, O. Kitao, H. Nakai, T. Vreven, J. A. Montgomery, Jr., 
 J. E. Peralta, F. Ogliaro, M. Bearpark, J. J. Heyd, E. Brothers, 
 K. N. Kudin, V. N. Staroverov, T. Keith, R. Kobayashi, J. Normand, 
 K. Raghavachari, A. Rendell, J. C. Burant, S. S. Iyengar, J. Tomasi, 
 M. Cossi, N. Rega, J. M. Millam, M. Klene, J. E. Knox, J. B. Cross, 
 V. Bakken, C. Adamo, J. Jaramillo, R. Gomperts, R. E. Stratmann, 
 O. Yazyev, A. J. Austin, R. Cammi, C. Pomelli, J. W. Ochterski, 
 R. L. Martin, K. Morokuma, V. G. Zakrzewski, G. A. Voth, 
 P. Salvador, J. J. Dannenberg, S. Dapprich, A. D. Daniels, 
 O. Farkas, J. B. Foresman, J. V. Ortiz, J. Cioslowski, 
 and D. J. Fox, Gaussian, Inc., Wallingford CT, 2010.
 
 ******************************************
 Gaussian 09:  EM64L-G09RevB.01 12-Aug-2010
                26-May-2021 
 ******************************************
 -----------
 #P HF/6-31G
 -----------
 1/38=1/1;
 2/12=2,17=6,18=5,40=1/2;
 3/5=1,6=6,11=9,16=1,25=1,30=1/1,2,3;
 4//1;
 5/5=2,38=5/2;
 6/7=2,8=2,9=2,10=2,28=1/1;
 99/5=1,9=1/99;
 Leave Link    1 at Wed May 26 14:28:24 2021, MaxMem=          0 cpu:       0.0
 (Enter /home/emil/gauss09/g09/l101.exe)
 -----
 CHCl3
 -----
 Symbolic Z-matrix:
 Charge =  0 Multiplicity = 1
 C
 H                    1    R
 Cl                   1    R1       2    A
 Cl                   1    R1       2    A        3     120.     0
 Cl                   1    R1       2    A        3    -120.     0
       Variables:
  R                     1.08078                  
  R1                    1.7642                   
  A                   107.9329                   
 
 NAtoms=      5 NQM=      5 NQMF=      0 NMic=      0 NMicF=      0 NTot=      5.
                    Isotopes and Nuclear Properties:
 (Nuclear quadrupole moments (NQMom) in fm**2, nuclear magnetic moments (NMagM)
  in nuclear magnetons)

  Atom         1           2           3           4           5
 IAtWgt=          12           1          35          35          35
 AtmWgt=  12.0000000   1.0078250  34.9688527  34.9688527  34.9688527
 NucSpn=           0           1           3           3           3
 AtZEff=   0.0000000   0.0000000   0.0000000   0.0000000   0.0000000
 NQMom=    0.0000000   0.0000000  -8.1650000  -8.1650000  -8.1650000
 NMagM=    0.0000000   2.7928460   0.8218740   0.8218740   0.8218740
 Leave Link  101 at Wed May 26 14:28:24 2021, MaxMem=   33554432 cpu:       0.1
 (Enter /home/emil/gauss09/g09/l202.exe)
                          Input orientation:                          
 ---------------------------------------------------------------------
 Center     Atomic      Atomic             Coordinates (Angstroms)
 Number     Number       Type             X           Y           Z
 ---------------------------------------------------------------------
      1          6           0        0.000000    0.000000    0.000000
      2          1           0        0.000000    0.000000    1.080783
      3         17           0        1.678496    0.000000   -0.543204
      4         17           0       -0.839248   -1.453620   -0.543204
      5         17           0       -0.839248    1.453620   -0.543204
 ---------------------------------------------------------------------
                    Distance matrix (angstroms):
                    1          2          3          4          5
     1  C    0.000000
     2  H    1.080783   0.000000
     3  Cl   1.764205   2.335526   0.000000
     4  Cl   1.764205   2.335526   2.907240   0.000000
     5  Cl   1.764205   2.335526   2.907240   2.907240   0.000000
 Stoichiometry    CHCl3
 Framework group  C3V[C3(CH),3SGV(Cl)]
 Deg. of freedom     3
 Full point group                 C3V     NOp   6
 Largest Abelian subgroup         CS      NOp   2
 Largest concise Abelian subgroup CS      NOp   2
                         Standard orientation:                         
 ---------------------------------------------------------------------
 Center     Atomic      Atomic             Coordinates (Angstroms)
 Number     Number       Type             X           Y           Z
 ---------------------------------------------------------------------
      1          6           0        0.000000    0.000000    0.459011
      2          1           0        0.000000    0.000000    1.539794
      3         17           0        0.000000    1.678496   -0.084193
      4         17           0        1.453620   -0.839248   -0.084193
      5         17           0       -1.453620   -0.839248   -0.084193
 ---------------------------------------------------------------------
 Rotational constants (GHZ):      3.2942186      3.2942186      1.7099133
 Leave Link  202 at Wed May 26 14:28:24 2021, MaxMem=   33554432 cpu:       0.0
 (Enter /home/emil/gauss09/g09/l301.exe)
 Standard basis: 6-31G (6D, 7F)
 Ernie: Thresh=  0.10000D-02 Tol=  0.10000D-05 Strict=F.
 There are    32 symmetry adapted basis functions of A'  symmetry.
 There are    18 symmetry adapted basis functions of A"  symmetry.
 Integral buffers will be    131072 words long.
 Raffenetti 1 integral format.
 Two-electron integral symmetry is turned on.
    50 basis functions,   164 primitive gaussians,    50 cartesian basis functions
    29 alpha electrons       29 beta electrons
       nuclear repulsion energy       264.0903435956 Hartrees.
 IExCor=    0 DFT=F Ex=HF Corr=None ExCW=0 ScaHFX=  1.000000
 ScaDFX=  1.000000  1.000000  1.000000  1.000000 ScalE2=  1.000000  1.000000
 IRadAn=      0 IRanWt=     -1 IRanGd=            0 ICorTp=0
 NAtoms=    5 NActive=    5 NUniq=    3 SFac= 2.78D+00 NAtFMM=   50 NAOKFM=F Big=F
 Leave Link  301 at Wed May 26 14:28:24 2021, MaxMem=   33554432 cpu:       0.0
 (Enter /home/emil/gauss09/g09/l302.exe)
 NPDir=0 NMtPBC=     1 NCelOv=     1 NCel=       1 NClECP=     1 NCelD=      1
         NCelK=      1 NCelE2=     1 NClLst=     1 CellRange=     0.0.
 One-electron integrals computed using PRISM.
 One-electron integral symmetry used in STVInt
 NBasis=    50 RedAO= T  NBF=    32    18
 NBsUse=    50 1.00D-06 NBFU=    32    18
 Leave Link  302 at Wed May 26 14:28:24 2021, MaxMem=   33554432 cpu:       0.1
 (Enter /home/emil/gauss09/g09/l303.exe)
 DipDrv:  MaxL=1.
 Leave Link  303 at Wed May 26 14:28:24 2021, MaxMem=   33554432 cpu:       0.1
 (Enter /home/emil/gauss09/g09/l401.exe)
 Harris functional with IExCor=  205 diagonalized for initial guess.
 ExpMin= 1.43D-01 ExpMax= 2.52D+04 ExpMxC= 3.78D+03 IAcc=1 IRadAn=         1 AccDes= 0.00D+00
 HarFok:  IExCor=  205 AccDes= 0.00D+00 IRadAn=         1 IDoV= 1
 ScaDFX=  1.000000  1.000000  1.000000  1.000000
 FoFCou: FMM=F IPFlag=           0 FMFlag=      100000 FMFlg1=           0
         NFxFlg=           0 DoJE=T BraDBF=F KetDBF=T FulRan=T
         Omega=  0.000000  0.000000  1.000000  0.000000  0.000000 ICntrl=     500 IOpCl=  0
         NMat0=    1 NMatS0=    1 NMatT0=    0 NMatD0=    1 NMtDS0=    0 NMtDT0=    0
         I1Cent=           4 NGrid=           0.
 Petite list used in FoFCou.
 Harris En= -1415.39622639192    
 Initial guess orbital symmetries:
       Occupied  (E) (E) (A1) (A1) (E) (E) (A1) (A1) (E) (E) (E)
                 (E) (A2) (A1) (E) (E) (A1) (E) (E) (A1) (A1) (E)
                 (E) (E) (E) (A1) (E) (E) (A2)
       Virtual   (A1) (E) (E) (A1) (A1) (E) (E) (A1) (E) (E) (A1)
                 (E) (E) (A2) (E) (E) (A1) (E) (E) (A1) (A1)
 The electronic state of the initial guess is 1-A1.
 Leave Link  401 at Wed May 26 14:28:24 2021, MaxMem=   33554432 cpu:       0.3
 (Enter /home/emil/gauss09/g09/l502.exe)
 Closed shell SCF:
 Requested convergence on RMS density matrix=1.00D-08 within 128 cycles.
 Requested convergence on MAX density matrix=1.00D-06.
 Requested convergence on             energy=1.00D-06.
 No special actions if energy rises.
 Using DIIS extrapolation, IDIIS=  1040.
 Integral symmetry usage will be decided dynamically.
 Keep R1 ints in memory in canonical form, NReq=1639922.
 IEnd=       26458 IEndB=       26458 NGot=    33554432 MDV=    32733687
 LenX=    32733687 LenY=    32730746
 Symmetry not used in FoFDir.
 MinBra= 0 MaxBra= 1 Meth= 1.
 IRaf=       0 NMat=   1 IRICut=       1 DoRegI=T DoRafI=F ISym2E= 0 JSym2E=0.

 Cycle   1  Pass 1  IDiag  1:
 E= -1416.73653593441    
 DIIS: error= 3.92D-02 at cycle   1 NSaved=   1.
 NSaved= 1 IEnMin= 1 EnMin= -1416.73653593441     IErMin= 1 ErrMin= 3.92D-02
 ErrMax= 3.92D-02 EMaxC= 1.00D-01 BMatC= 1.17D-01 BMatP= 1.17D-01
 IDIUse=3 WtCom= 6.08D-01 WtEn= 3.92D-01
 Coeff-Com:  0.100D+01
 Coeff-En:   0.100D+01
 Coeff:      0.100D+01
 Gap=     0.554 Goal=   None    Shift=    0.000
 GapD=    0.554 DampG=2.000 DampE=0.500 DampFc=1.0000 IDamp=-1.
 RMSDP=5.69D-03 MaxDP=8.03D-02              OVMax= 0.00D+00

 Cycle   2  Pass 1  IDiag  1:
 E= -1416.77049036224     Delta-E=       -0.033954427839 Rises=F Damp=F
 DIIS: error= 5.86D-03 at cycle   2 NSaved=   2.
 NSaved= 2 IEnMin= 2 EnMin= -1416.77049036224     IErMin= 2 ErrMin= 5.86D-03
 ErrMax= 5.86D-03 EMaxC= 1.00D-01 BMatC= 2.55D-03 BMatP= 1.17D-01
 IDIUse=3 WtCom= 9.41D-01 WtEn= 5.86D-02
 Coeff-Com:  0.824D-02 0.992D+00
 Coeff-En:   0.000D+00 0.100D+01
 Coeff:      0.776D-02 0.992D+00
 Gap=     0.585 Goal=   None    Shift=    0.000
 RMSDP=1.86D-03 MaxDP=1.85D-02 DE=-3.40D-02 OVMax= 0.00D+00

 Cycle   3  Pass 1  IDiag  1:
 E= -1416.77258328419     Delta-E=       -0.002092921950 Rises=F Damp=F
 DIIS: error= 3.60D-03 at cycle   3 NSaved=   3.
 NSaved= 3 IEnMin= 3 EnMin= -1416.77258328419     IErMin= 3 ErrMin= 3.60D-03
 ErrMax= 3.60D-03 EMaxC= 1.00D-01 BMatC= 7.35D-04 BMatP= 2.55D-03
 IDIUse=3 WtCom= 9.64D-01 WtEn= 3.60D-02
 Coeff-Com: -0.145D-01 0.342D+00 0.673D+00
 Coeff-En:   0.000D+00 0.000D+00 0.100D+01
 Coeff:     -0.139D-01 0.330D+00 0.684D+00
 Gap=     0.575 Goal=   None    Shift=    0.000
 RMSDP=6.24D-04 MaxDP=7.22D-03 DE=-2.09D-03 OVMax= 0.00D+00

 Cycle   4  Pass 1  IDiag  1:
 E= -1416.77345393954     Delta-E=       -0.000870655345 Rises=F Damp=F
 DIIS: error= 3.26D-04 at cycle   4 NSaved=   4.
 NSaved= 4 IEnMin= 4 EnMin= -1416.77345393954     IErMin= 4 ErrMin= 3.26D-04
 ErrMax= 3.26D-04 EMaxC= 1.00D-01 BMatC= 1.25D-05 BMatP= 7.35D-04
 IDIUse=3 WtCom= 9.97D-01 WtEn= 3.26D-03
 Coeff-Com:  0.499D-02-0.160D+00-0.186D+00 0.134D+01
 Coeff-En:   0.000D+00 0.000D+00 0.000D+00 0.100D+01
 Coeff:      0.497D-02-0.159D+00-0.186D+00 0.134D+01
 Gap=     0.576 Goal=   None    Shift=    0.000
 RMSDP=3.03D-04 MaxDP=3.38D-03 DE=-8.71D-04 OVMax= 0.00D+00

 Cycle   5  Pass 1  IDiag  1:
 E= -1416.77348966860     Delta-E=       -0.000035729060 Rises=F Damp=F
 DIIS: error= 4.96D-05 at cycle   5 NSaved=   5.
 NSaved= 5 IEnMin= 5 EnMin= -1416.77348966860     IErMin= 5 ErrMin= 4.96D-05
 ErrMax= 4.96D-05 EMaxC= 1.00D-01 BMatC= 1.68D-07 BMatP= 1.25D-05
 IDIUse=1 WtCom= 1.00D+00 WtEn= 0.00D+00
 Coeff-Com: -0.664D-03 0.266D-01 0.288D-01-0.310D+00 0.125D+01
 Coeff:     -0.664D-03 0.266D-01 0.288D-01-0.310D+00 0.125D+01
 Gap=     0.576 Goal=   None    Shift=    0.000
 RMSDP=3.83D-05 MaxDP=2.57D-04 DE=-3.57D-05 OVMax= 0.00D+00

 Cycle   6  Pass 1  IDiag  1:
 E= -1416.77349027414     Delta-E=       -0.000000605543 Rises=F Damp=F
 DIIS: error= 1.05D-05 at cycle   6 NSaved=   6.
 NSaved= 6 IEnMin= 6 EnMin= -1416.77349027414     IErMin= 6 ErrMin= 1.05D-05
 ErrMax= 1.05D-05 EMaxC= 1.00D-01 BMatC= 3.84D-09 BMatP= 1.68D-07
 IDIUse=1 WtCom= 1.00D+00 WtEn= 0.00D+00
 Coeff-Com:  0.634D-04-0.350D-02-0.304D-02 0.539D-01-0.347D+00 0.130D+01
 Coeff:      0.634D-04-0.350D-02-0.304D-02 0.539D-01-0.347D+00 0.130D+01
 Gap=     0.577 Goal=   None    Shift=    0.000
 RMSDP=4.55D-06 MaxDP=3.64D-05 DE=-6.06D-07 OVMax= 0.00D+00

 Cycle   7  Pass 1  IDiag  1:
 E= -1416.77349028599     Delta-E=       -0.000000011843 Rises=F Damp=F
 DIIS: error= 1.03D-06 at cycle   7 NSaved=   7.
 NSaved= 7 IEnMin= 7 EnMin= -1416.77349028599     IErMin= 7 ErrMin= 1.03D-06
 ErrMax= 1.03D-06 EMaxC= 1.00D-01 BMatC= 1.03D-10 BMatP= 3.84D-09
 IDIUse=1 WtCom= 1.00D+00 WtEn= 0.00D+00
 Coeff-Com: -0.386D-05 0.525D-03 0.439D-03-0.102D-01 0.774D-01-0.375D+00
 Coeff-Com:  0.131D+01
 Coeff:     -0.386D-05 0.525D-03 0.439D-03-0.102D-01 0.774D-01-0.375D+00
 Coeff:      0.131D+01
 Gap=     0.577 Goal=   None    Shift=    0.000
 RMSDP=9.55D-07 MaxDP=8.74D-06 DE=-1.18D-08 OVMax= 0.00D+00

 Cycle   8  Pass 1  IDiag  1:
 E= -1416.77349028635     Delta-E=       -0.000000000369 Rises=F Damp=F
 DIIS: error= 2.11D-07 at cycle   8 NSaved=   8.
 NSaved= 8 IEnMin= 8 EnMin= -1416.77349028635     IErMin= 8 ErrMin= 2.11D-07
 ErrMax= 2.11D-07 EMaxC= 1.00D-01 BMatC= 5.59D-12 BMatP= 1.03D-10
 IDIUse=1 WtCom= 1.00D+00 WtEn= 0.00D+00
 Coeff-Com: -0.348D-05 0.818D-04 0.880D-04-0.854D-03 0.376D-02-0.483D-02
 Coeff-Com: -0.178D+00 0.118D+01
 Coeff:     -0.348D-05 0.818D-04 0.880D-04-0.854D-03 0.376D-02-0.483D-02
 Coeff:     -0.178D+00 0.118D+01
 Gap=     0.577 Goal=   None    Shift=    0.000
 RMSDP=2.20D-07 MaxDP=2.03D-06 DE=-3.69D-10 OVMax= 0.00D+00

 Cycle   9  Pass 1  IDiag  1:
 E= -1416.77349028638     Delta-E=       -0.000000000025 Rises=F Damp=F
 DIIS: error= 6.46D-08 at cycle   9 NSaved=   9.
 NSaved= 9 IEnMin= 9 EnMin= -1416.77349028638     IErMin= 9 ErrMin= 6.46D-08
 ErrMax= 6.46D-08 EMaxC= 1.00D-01 BMatC= 4.85D-13 BMatP= 5.59D-12
 IDIUse=1 WtCom= 1.00D+00 WtEn= 0.00D+00
 Coeff-Com:  0.107D-05-0.509D-04-0.480D-04 0.886D-03-0.653D-02 0.309D-01
 Coeff-Com: -0.831D-01-0.165D+00 0.122D+01
 Coeff:      0.107D-05-0.509D-04-0.480D-04 0.886D-03-0.653D-02 0.309D-01
 Coeff:     -0.831D-01-0.165D+00 0.122D+01
 Gap=     0.577 Goal=   None    Shift=    0.000
 RMSDP=6.53D-08 MaxDP=5.48D-07 DE=-2.46D-11 OVMax= 0.00D+00

 Cycle  10  Pass 1  IDiag  1:
 E= -1416.77349028638     Delta-E=       -0.000000000001 Rises=F Damp=F
 DIIS: error= 1.99D-08 at cycle  10 NSaved=  10.
 NSaved=10 IEnMin=10 EnMin= -1416.77349028638     IErMin=10 ErrMin= 1.99D-08
 ErrMax= 1.99D-08 EMaxC= 1.00D-01 BMatC= 2.49D-14 BMatP= 4.85D-13
 IDIUse=1 WtCom= 1.00D+00 WtEn= 0.00D+00
 Coeff-Com: -0.169D-06 0.106D-04 0.961D-05-0.214D-03 0.170D-02-0.889D-02
 Coeff-Com:  0.359D-01-0.186D-01-0.383D+00 0.137D+01
 Coeff:     -0.169D-06 0.106D-04 0.961D-05-0.214D-03 0.170D-02-0.889D-02
 Coeff:      0.359D-01-0.186D-01-0.383D+00 0.137D+01
 Gap=     0.577 Goal=   None    Shift=    0.000
 RMSDP=1.43D-08 MaxDP=9.72D-08 DE=-1.36D-12 OVMax= 0.00D+00

 Cycle  11  Pass 1  IDiag  1:
 E= -1416.77349028638     Delta-E=       -0.000000000002 Rises=F Damp=F
 DIIS: error= 2.47D-09 at cycle  11 NSaved=  11.
 NSaved=11 IEnMin=11 EnMin= -1416.77349028638     IErMin=11 ErrMin= 2.47D-09
 ErrMax= 2.47D-09 EMaxC= 1.00D-01 BMatC= 4.61D-16 BMatP= 2.49D-14
 IDIUse=1 WtCom= 1.00D+00 WtEn= 0.00D+00
 Coeff-Com:  0.257D-07-0.201D-05-0.159D-05 0.454D-04-0.384D-03 0.210D-02
 Coeff-Com: -0.946D-02 0.876D-02 0.974D-01-0.442D+00 0.134D+01
 Coeff:      0.257D-07-0.201D-05-0.159D-05 0.454D-04-0.384D-03 0.210D-02
 Coeff:     -0.946D-02 0.876D-02 0.974D-01-0.442D+00 0.134D+01
 Gap=     0.577 Goal=   None    Shift=    0.000
 RMSDP=1.59D-09 MaxDP=1.48D-08 DE=-1.82D-12 OVMax= 0.00D+00

 SCF Done:  E(RHF) =  -1416.77349029     A.U. after   11 cycles
             Convg  =    0.1589D-08             -V/T =  1.9994
 KE= 1.417611478905D+03 PE=-3.899935061384D+03 EE= 8.014597485970D+02
 Leave Link  502 at Wed May 26 14:28:24 2021, MaxMem=   33554432 cpu:       0.2
 (Enter /home/emil/gauss09/g09/l601.exe)
 Copying SCF densities to generalized density rwf, IOpCl= 0 IROHF=0.

 **********************************************************************

            Population analysis using the SCF density.

 **********************************************************************

 Orbital symmetries:
       Occupied  (E) (E) (A1) (A1) (E) (E) (A1) (A1) (E) (E) (A2)
                 (E) (E) (E) (E) (A1) (A1) (E) (E) (A1) (A1) (E)
                 (E) (E) (E) (E) (E) (A1) (A2)
       Virtual   (A1) (E) (E) (A1) (A1) (E) (E) (A1) (E) (E) (A1)
                 (E) (E) (A2) (E) (E) (A1) (E) (E) (A1) (A1)
 The electronic state is 1-A1.
 Alpha  occ. eigenvalues -- -104.85704-104.85704-104.85702 -11.44629 -10.59934
 Alpha  occ. eigenvalues --  -10.59934 -10.59932  -8.06787  -8.06786  -8.06786
 Alpha  occ. eigenvalues --   -8.06306  -8.06305  -8.06305  -8.06298  -8.06298
 Alpha  occ. eigenvalues --   -8.06297  -1.27521  -1.13290  -1.13290  -0.88908
 Alpha  occ. eigenvalues --   -0.69949  -0.63329  -0.63329  -0.51025  -0.51025
 Alpha  occ. eigenvalues --   -0.47558  -0.47558  -0.47427  -0.46287
 Alpha virt. eigenvalues --    0.11363   0.17336   0.17336   0.21676   0.46322
 Alpha virt. eigenvalues --    0.54542   0.54542   0.59404   0.61188   0.61188
 Alpha virt. eigenvalues --    0.62767   0.64167   0.64167   0.71961   0.80557
 Alpha virt. eigenvalues --    0.80557   0.82724   0.85479   0.85479   1.12611
 Alpha virt. eigenvalues --    1.39697
          Condensed to atoms (all electrons):
              1          2          3          4          5
     1  C    6.124676   0.339993   0.087134   0.087134   0.087134
     2  H    0.339993   0.487388  -0.050244  -0.050244  -0.050244
     3  Cl   0.087134  -0.050244  16.986071  -0.078601  -0.078601
     4  Cl   0.087134  -0.050244  -0.078601  16.986071  -0.078601
     5  Cl   0.087134  -0.050244  -0.078601  -0.078601  16.986071
 Mulliken atomic charges:
              1
     1  C   -0.726071
     2  H    0.323350
     3  Cl   0.134240
     4  Cl   0.134240
     5  Cl   0.134240
 Sum of Mulliken atomic charges =   0.00000
 Mulliken charges with hydrogens summed into heavy atoms:
              1
     1  C   -0.402721
     3  Cl   0.134240
     4  Cl   0.134240
     5  Cl   0.134240
 Sum of Mulliken charges with hydrogens summed into heavy atoms =   0.00000
 Electronic spatial extent (au):  <R**2>=            628.3983
 Charge=              0.0000 electrons
 Dipole moment (field-independent basis, Debye):
    X=              0.0000    Y=              0.0000    Z=              1.6584  Tot=              1.6584
 Quadrupole moment (field-independent basis, Debye-Ang):
   XX=            -46.7247   YY=            -46.7247   ZZ=            -42.4240
   XY=              0.0000   XZ=              0.0000   YZ=              0.0000
 Traceless Quadrupole moment (field-independent basis, Debye-Ang):
   XX=             -1.4336   YY=             -1.4336   ZZ=              2.8671
   XY=              0.0000   XZ=              0.0000   YZ=              0.0000
 Octapole moment (field-independent basis, Debye-Ang**2):
  XXX=              0.0000  YYY=              1.3052  ZZZ=              3.4833  XYY=              0.0000
  XXY=             -1.3052  XXZ=             -2.0404  XZZ=              0.0000  YZZ=              0.0000
  YYZ=             -2.0404  XYZ=              0.0000
 Hexadecapole moment (field-independent basis, Debye-Ang**3):
 XXXX=           -360.0637 YYYY=           -360.0637 ZZZZ=            -59.1962 XXXY=              0.0000
 XXXZ=              0.0000 YYYX=              0.0000 YYYZ=             -3.6427 ZZZX=              0.0000
 ZZZY=              0.0000 XXYY=           -120.0212 XXZZ=            -72.8659 YYZZ=            -72.8659
 XXYZ=              3.6427 YYXZ=              0.0000 ZZXY=              0.0000
 N-N= 2.640903435956D+02 E-N=-3.899935061374D+03  KE= 1.417611478905D+03
 Symmetry A'   KE= 9.101429427326D+02
 Symmetry A"   KE= 5.074685361723D+02
 No NMR shielding tensors so no spin-rotation constants.
 Leave Link  601 at Wed May 26 14:28:24 2021, MaxMem=   33554432 cpu:       0.1
 (Enter /home/emil/gauss09/g09/l9999.exe)
 1\1\GINC-KONG-SRV\SP\RHF\6-31G\C1H1Cl3\EMIL\26-May-2021\0\\#P HF/6-31G
 \\CHCl3\\0,1\C\H,1,1.08078297\Cl,1,1.76420474,2,107.93290406\Cl,1,1.76
 420474,2,107.93290406,3,120.,0\Cl,1,1.76420474,2,107.93290406,3,-120.,
 0\\Version=EM64L-G09RevB.01\State=1-A1\HF=-1416.7734903\RMSD=1.589e-09
 \Dipole=0.,0.,0.6524523\Quadrupole=-1.0658166,-1.0658166,2.1316332,0.,
 0.,0.\PG=C03V [C3(C1H1),3SGV(Cl1)]\\@


 REALITY IS FOR PEOPLE WHO CAN'T FACE SCIENCE FICTION.
 Job cpu time:  0 days  0 hours  0 minutes  1.0 seconds.
 File lengths (MBytes):  RWF=      5 Int=      0 D2E=      0 Chk=      1 Scr=      1
 Normal termination of Gaussian 09 at Wed May 26 14:28:25 2021.
