 Entering Gaussian System, Link 0=g09
 Input=CHF3.com
 Output=CHF3.log
 Initial command:
 /home/emil/gauss09/g09/l1.exe /home/emil/scratch/g09/Gau-10000.inp -scrdir=/home/emil/scratch/g09/
 Entering Link 1 = /home/emil/gauss09/g09/l1.exe PID=     10002.
  
 Copyright (c) 1988,1990,1992,1993,1995,1998,2003,2009,2010,
            Gaussian, Inc.  All Rights Reserved.
  
 This is part of the Gaussian(R) 09 program.  It is based on
 the Gaussian(R) 03 system (copyright 2003, Gaussian, Inc.),
 the Gaussian(R) 98 system (copyright 1998, Gaussian, Inc.),
 the Gaussian(R) 94 system (copyright 1995, Gaussian, Inc.),
 the Gaussian 92(TM) system (copyright 1992, Gaussian, Inc.),
 the Gaussian 90(TM) system (copyright 1990, Gaussian, Inc.),
 the Gaussian 88(TM) system (copyright 1988, Gaussian, Inc.),
 the Gaussian 86(TM) system (copyright 1986, Carnegie Mellon
 University), and the Gaussian 82(TM) system (copyright 1983,
 Carnegie Mellon University). Gaussian is a federally registered
 trademark of Gaussian, Inc.
  
 This software contains proprietary and confidential information,
 including trade secrets, belonging to Gaussian, Inc.
  
 This software is provided under written license and may be
 used, copied, transmitted, or stored only in accord with that
 written license.
  
 The following legend is applicable only to US Government
 contracts under FAR:
  
                    RESTRICTED RIGHTS LEGEND
  
 Use, reproduction and disclosure by the US Government is
 subject to restrictions as set forth in subparagraphs (a)
 and (c) of the Commercial Computer Software - Restricted
 Rights clause in FAR 52.227-19.
  
 Gaussian, Inc.
 340 Quinnipiac St., Bldg. 40, Wallingford CT 06492
  
  
 ---------------------------------------------------------------
 Warning -- This program may not be used in any manner that
 competes with the business of Gaussian, Inc. or will provide
 assistance to any competitor of Gaussian, Inc.  The licensee
 of this program is prohibited from giving any competitor of
 Gaussian, Inc. access to this program.  By using this program,
 the user acknowledges that Gaussian, Inc. is engaged in the
 business of creating and licensing software in the field of
 computational chemistry and represents and warrants to the
 licensee that it is not a competitor of Gaussian, Inc. and that
 it will not use this program in any manner prohibited above.
 ---------------------------------------------------------------
  

 Cite this work as:
 Gaussian 09, Revision B.01,
 M. J. Frisch, G. W. Trucks, H. B. Schlegel, G. E. Scuseria, 
 M. A. Robb, J. R. Cheeseman, G. Scalmani, V. Barone, B. Mennucci, 
 G. A. Petersson, H. Nakatsuji, M. Caricato, X. Li, H. P. Hratchian, 
 A. F. Izmaylov, J. Bloino, G. Zheng, J. L. Sonnenberg, M. Hada, 
 M. Ehara, K. Toyota, R. Fukuda, J. Hasegawa, M. Ishida, T. Nakajima, 
 Y. Honda, O. Kitao, H. Nakai, T. Vreven, J. A. Montgomery, Jr., 
 J. E. Peralta, F. Ogliaro, M. Bearpark, J. J. Heyd, E. Brothers, 
 K. N. Kudin, V. N. Staroverov, T. Keith, R. Kobayashi, J. Normand, 
 K. Raghavachari, A. Rendell, J. C. Burant, S. S. Iyengar, J. Tomasi, 
 M. Cossi, N. Rega, J. M. Millam, M. Klene, J. E. Knox, J. B. Cross, 
 V. Bakken, C. Adamo, J. Jaramillo, R. Gomperts, R. E. Stratmann, 
 O. Yazyev, A. J. Austin, R. Cammi, C. Pomelli, J. W. Ochterski, 
 R. L. Martin, K. Morokuma, V. G. Zakrzewski, G. A. Voth, 
 P. Salvador, J. J. Dannenberg, S. Dapprich, A. D. Daniels, 
 O. Farkas, J. B. Foresman, J. V. Ortiz, J. Cioslowski, 
 and D. J. Fox, Gaussian, Inc., Wallingford CT, 2010.
 
 ******************************************
 Gaussian 09:  EM64L-G09RevB.01 12-Aug-2010
                26-May-2021 
 ******************************************
 -----------
 #P HF/6-31G
 -----------
 1/38=1/1;
 2/12=2,17=6,18=5,40=1/2;
 3/5=1,6=6,11=9,16=1,25=1,30=1/1,2,3;
 4//1;
 5/5=2,38=5/2;
 6/7=2,8=2,9=2,10=2,28=1/1;
 99/5=1,9=1/99;
 Leave Link    1 at Wed May 26 14:31:41 2021, MaxMem=          0 cpu:       0.0
 (Enter /home/emil/gauss09/g09/l101.exe)
 ----
 CHF3
 ----
 Symbolic Z-matrix:
 Charge =  0 Multiplicity = 1
 C
 H                    1    CH
 F                    1    CF       2    FCH
 F                    1    CF       2    FCH      3     120.     0
 F                    1    CF       2    FCH      3    -120.     0
       Variables:
  CH                    1.08576                  
  CF                    1.33                     
  FCH                 110.47105                  
 
 NAtoms=      5 NQM=      5 NQMF=      0 NMic=      0 NMicF=      0 NTot=      5.
                    Isotopes and Nuclear Properties:
 (Nuclear quadrupole moments (NQMom) in fm**2, nuclear magnetic moments (NMagM)
  in nuclear magnetons)

  Atom         1           2           3           4           5
 IAtWgt=          12           1          19          19          19
 AtmWgt=  12.0000000   1.0078250  18.9984033  18.9984033  18.9984033
 NucSpn=           0           1           1           1           1
 AtZEff=   0.0000000   0.0000000   0.0000000   0.0000000   0.0000000
 NQMom=    0.0000000   0.0000000   0.0000000   0.0000000   0.0000000
 NMagM=    0.0000000   2.7928460   2.6288670   2.6288670   2.6288670
 Leave Link  101 at Wed May 26 14:31:42 2021, MaxMem=   33554432 cpu:       0.1
 (Enter /home/emil/gauss09/g09/l202.exe)
                          Input orientation:                          
 ---------------------------------------------------------------------
 Center     Atomic      Atomic             Coordinates (Angstroms)
 Number     Number       Type             X           Y           Z
 ---------------------------------------------------------------------
      1          6           0        0.000000    0.000000    0.000000
      2          1           0        0.000000    0.000000    1.085757
      3          9           0        1.246011    0.000000   -0.465147
      4          9           0       -0.623006   -1.079077   -0.465147
      5          9           0       -0.623006    1.079077   -0.465147
 ---------------------------------------------------------------------
                    Distance matrix (angstroms):
                    1          2          3          4          5
     1  C    0.000000
     2  H    1.085757   0.000000
     3  F    1.330002   1.989434   0.000000
     4  F    1.330002   1.989434   2.158155   0.000000
     5  F    1.330002   1.989434   2.158155   2.158155   0.000000
 Stoichiometry    CHF3
 Framework group  C3V[C3(CH),3SGV(F)]
 Deg. of freedom     3
 Full point group                 C3V     NOp   6
 Largest Abelian subgroup         CS      NOp   2
 Largest concise Abelian subgroup CS      NOp   2
                         Standard orientation:                         
 ---------------------------------------------------------------------
 Center     Atomic      Atomic             Coordinates (Angstroms)
 Number     Number       Type             X           Y           Z
 ---------------------------------------------------------------------
      1          6           0        0.000000    0.000000    0.337447
      2          1           0        0.000000    0.000000    1.423204
      3          9           0        0.000000    1.246011   -0.127700
      4          9           0        1.079077   -0.623006   -0.127700
      5          9           0       -1.079077   -0.623006   -0.127700
 ---------------------------------------------------------------------
 Rotational constants (GHZ):     10.4126682     10.4126682      5.7113002
 Leave Link  202 at Wed May 26 14:31:42 2021, MaxMem=   33554432 cpu:       0.0
 (Enter /home/emil/gauss09/g09/l301.exe)
 Standard basis: 6-31G (6D, 7F)
 Ernie: Thresh=  0.10000D-02 Tol=  0.10000D-05 Strict=F.
 There are    25 symmetry adapted basis functions of A'  symmetry.
 There are    13 symmetry adapted basis functions of A"  symmetry.
 Integral buffers will be    131072 words long.
 Raffenetti 1 integral format.
 Two-electron integral symmetry is turned on.
    38 basis functions,    92 primitive gaussians,    38 cartesian basis functions
    17 alpha electrons       17 beta electrons
       nuclear repulsion energy       134.1455337695 Hartrees.
 IExCor=    0 DFT=F Ex=HF Corr=None ExCW=0 ScaHFX=  1.000000
 ScaDFX=  1.000000  1.000000  1.000000  1.000000 ScalE2=  1.000000  1.000000
 IRadAn=      0 IRanWt=     -1 IRanGd=            0 ICorTp=0
 NAtoms=    5 NActive=    5 NUniq=    3 SFac= 2.78D+00 NAtFMM=   50 NAOKFM=F Big=F
 Leave Link  301 at Wed May 26 14:31:42 2021, MaxMem=   33554432 cpu:       0.0
 (Enter /home/emil/gauss09/g09/l302.exe)
 NPDir=0 NMtPBC=     1 NCelOv=     1 NCel=       1 NClECP=     1 NCelD=      1
         NCelK=      1 NCelE2=     1 NClLst=     1 CellRange=     0.0.
 One-electron integrals computed using PRISM.
 One-electron integral symmetry used in STVInt
 NBasis=    38 RedAO= T  NBF=    25    13
 NBsUse=    38 1.00D-06 NBFU=    25    13
 Leave Link  302 at Wed May 26 14:31:42 2021, MaxMem=   33554432 cpu:       0.1
 (Enter /home/emil/gauss09/g09/l303.exe)
 DipDrv:  MaxL=1.
 Leave Link  303 at Wed May 26 14:31:42 2021, MaxMem=   33554432 cpu:       0.0
 (Enter /home/emil/gauss09/g09/l401.exe)
 Harris functional with IExCor=  205 diagonalized for initial guess.
 ExpMin= 1.61D-01 ExpMax= 7.00D+03 ExpMxC= 1.05D+03 IAcc=1 IRadAn=         1 AccDes= 0.00D+00
 HarFok:  IExCor=  205 AccDes= 0.00D+00 IRadAn=         1 IDoV= 1
 ScaDFX=  1.000000  1.000000  1.000000  1.000000
 FoFCou: FMM=F IPFlag=           0 FMFlag=      100000 FMFlg1=           0
         NFxFlg=           0 DoJE=T BraDBF=F KetDBF=T FulRan=T
         Omega=  0.000000  0.000000  1.000000  0.000000  0.000000 ICntrl=     500 IOpCl=  0
         NMat0=    1 NMatS0=    1 NMatT0=    0 NMatD0=    1 NMtDS0=    0 NMtDT0=    0
         I1Cent=           4 NGrid=           0.
 Petite list used in FoFCou.
 Harris En= -336.620438339797    
 Initial guess orbital symmetries:
       Occupied  (A1) (E) (E) (A1) (A1) (E) (E) (A1) (A1) (E) (E)
                 (E) (E) (E) (E) (A2) (A1)
       Virtual   (A1) (E) (E) (A1) (E) (E) (A1) (A1) (A1) (E) (E)
                 (A1) (E) (E) (A2) (E) (E) (A1) (E) (E) (A1)
 The electronic state of the initial guess is 1-A1.
 Leave Link  401 at Wed May 26 14:31:42 2021, MaxMem=   33554432 cpu:       0.3
 (Enter /home/emil/gauss09/g09/l502.exe)
 Closed shell SCF:
 Requested convergence on RMS density matrix=1.00D-08 within 128 cycles.
 Requested convergence on MAX density matrix=1.00D-06.
 Requested convergence on             energy=1.00D-06.
 No special actions if energy rises.
 Using DIIS extrapolation, IDIIS=  1040.
 Integral symmetry usage will be decided dynamically.
 Keep R1 ints in memory in canonical form, NReq=1098029.
 IEnd=       23104 IEndB=       23104 NGot=    33554432 MDV=    33274512
 LenX=    33274512 LenY=    33272627
 Symmetry not used in FoFDir.
 MinBra= 0 MaxBra= 1 Meth= 1.
 IRaf=       0 NMat=   1 IRICut=       1 DoRegI=T DoRafI=F ISym2E= 0 JSym2E=0.

 Cycle   1  Pass 1  IDiag  1:
 E= -336.611738047400    
 DIIS: error= 2.90D-02 at cycle   1 NSaved=   1.
 NSaved= 1 IEnMin= 1 EnMin= -336.611738047400     IErMin= 1 ErrMin= 2.90D-02
 ErrMax= 2.90D-02 EMaxC= 1.00D-01 BMatC= 1.11D-01 BMatP= 1.11D-01
 IDIUse=3 WtCom= 7.10D-01 WtEn= 2.90D-01
 Coeff-Com:  0.100D+01
 Coeff-En:   0.100D+01
 Coeff:      0.100D+01
 Gap=     0.824 Goal=   None    Shift=    0.000
 GapD=    0.824 DampG=2.000 DampE=0.500 DampFc=1.0000 IDamp=-1.
 RMSDP=5.40D-03 MaxDP=4.58D-02              OVMax= 2.61D-02

 Cycle   2  Pass 1  IDiag  1:
 E= -336.647667953408     Delta-E=       -0.035929906009 Rises=F Damp=F
 DIIS: error= 1.26D-02 at cycle   2 NSaved=   2.
 NSaved= 2 IEnMin= 2 EnMin= -336.647667953408     IErMin= 2 ErrMin= 1.26D-02
 ErrMax= 1.26D-02 EMaxC= 1.00D-01 BMatC= 1.18D-02 BMatP= 1.11D-01
 IDIUse=3 WtCom= 8.74D-01 WtEn= 1.26D-01
 Coeff-Com:  0.152D+00 0.848D+00
 Coeff-En:   0.000D+00 0.100D+01
 Coeff:      0.133D+00 0.867D+00
 Gap=     0.858 Goal=   None    Shift=    0.000
 RMSDP=2.46D-03 MaxDP=1.72D-02 DE=-3.59D-02 OVMax= 1.76D-02

 Cycle   3  Pass 1  IDiag  1:
 E= -336.654401536586     Delta-E=       -0.006733583177 Rises=F Damp=F
 DIIS: error= 5.30D-03 at cycle   3 NSaved=   3.
 NSaved= 3 IEnMin= 3 EnMin= -336.654401536586     IErMin= 3 ErrMin= 5.30D-03
 ErrMax= 5.30D-03 EMaxC= 1.00D-01 BMatC= 1.66D-03 BMatP= 1.18D-02
 IDIUse=3 WtCom= 9.47D-01 WtEn= 5.30D-02
 Coeff-Com: -0.319D-01 0.239D+00 0.793D+00
 Coeff-En:   0.000D+00 0.000D+00 0.100D+01
 Coeff:     -0.302D-01 0.227D+00 0.804D+00
 Gap=     0.846 Goal=   None    Shift=    0.000
 RMSDP=6.38D-04 MaxDP=6.39D-03 DE=-6.73D-03 OVMax= 4.40D-03

 Cycle   4  Pass 1  IDiag  1:
 E= -336.655568049495     Delta-E=       -0.001166512909 Rises=F Damp=F
 DIIS: error= 4.60D-04 at cycle   4 NSaved=   4.
 NSaved= 4 IEnMin= 4 EnMin= -336.655568049495     IErMin= 4 ErrMin= 4.60D-04
 ErrMax= 4.60D-04 EMaxC= 1.00D-01 BMatC= 2.29D-05 BMatP= 1.66D-03
 IDIUse=3 WtCom= 9.95D-01 WtEn= 4.60D-03
 Coeff-Com:  0.826D-02-0.111D+00-0.267D+00 0.137D+01
 Coeff-En:   0.000D+00 0.000D+00 0.000D+00 0.100D+01
 Coeff:      0.823D-02-0.110D+00-0.266D+00 0.137D+01
 Gap=     0.846 Goal=   None    Shift=    0.000
 RMSDP=2.50D-04 MaxDP=1.15D-03 DE=-1.17D-03 OVMax= 2.44D-03

 Cycle   5  Pass 1  IDiag  1:
 E= -336.655615892471     Delta-E=       -0.000047842976 Rises=F Damp=F
 DIIS: error= 9.25D-05 at cycle   5 NSaved=   5.
 NSaved= 5 IEnMin= 5 EnMin= -336.655615892471     IErMin= 5 ErrMin= 9.25D-05
 ErrMax= 9.25D-05 EMaxC= 1.00D-01 BMatC= 5.76D-07 BMatP= 2.29D-05
 IDIUse=1 WtCom= 1.00D+00 WtEn= 0.00D+00
 Coeff-Com: -0.517D-03 0.117D-01 0.232D-01-0.227D+00 0.119D+01
 Coeff:     -0.517D-03 0.117D-01 0.232D-01-0.227D+00 0.119D+01
 Gap=     0.846 Goal=   None    Shift=    0.000
 RMSDP=3.73D-05 MaxDP=1.97D-04 DE=-4.78D-05 OVMax= 3.74D-04

 Cycle   6  Pass 1  IDiag  1:
 E= -336.655617156645     Delta-E=       -0.000001264174 Rises=F Damp=F
 DIIS: error= 3.25D-05 at cycle   6 NSaved=   6.
 NSaved= 6 IEnMin= 6 EnMin= -336.655617156645     IErMin= 6 ErrMin= 3.25D-05
 ErrMax= 3.25D-05 EMaxC= 1.00D-01 BMatC= 3.19D-08 BMatP= 5.76D-07
 IDIUse=1 WtCom= 1.00D+00 WtEn= 0.00D+00
 Coeff-Com: -0.453D-03 0.719D-02 0.176D-01-0.951D-01 0.315D-02 0.107D+01
 Coeff:     -0.453D-03 0.719D-02 0.176D-01-0.951D-01 0.315D-02 0.107D+01
 Gap=     0.846 Goal=   None    Shift=    0.000
 RMSDP=9.08D-06 MaxDP=7.34D-05 DE=-1.26D-06 OVMax= 8.25D-05

 Cycle   7  Pass 1  IDiag  1:
 E= -336.655617218799     Delta-E=       -0.000000062154 Rises=F Damp=F
 DIIS: error= 3.63D-06 at cycle   7 NSaved=   7.
 NSaved= 7 IEnMin= 7 EnMin= -336.655617218799     IErMin= 7 ErrMin= 3.63D-06
 ErrMax= 3.63D-06 EMaxC= 1.00D-01 BMatC= 6.36D-10 BMatP= 3.19D-08
 IDIUse=1 WtCom= 1.00D+00 WtEn= 0.00D+00
 Coeff-Com:  0.131D-03-0.218D-02-0.531D-02 0.314D-01-0.351D-01-0.243D+00
 Coeff-Com:  0.125D+01
 Coeff:      0.131D-03-0.218D-02-0.531D-02 0.314D-01-0.351D-01-0.243D+00
 Coeff:      0.125D+01
 Gap=     0.846 Goal=   None    Shift=    0.000
 RMSDP=1.26D-06 MaxDP=1.17D-05 DE=-6.22D-08 OVMax= 1.53D-05

 Cycle   8  Pass 1  IDiag  1:
 E= -336.655617219982     Delta-E=       -0.000000001183 Rises=F Damp=F
 DIIS: error= 5.31D-07 at cycle   8 NSaved=   8.
 NSaved= 8 IEnMin= 8 EnMin= -336.655617219982     IErMin= 8 ErrMin= 5.31D-07
 ErrMax= 5.31D-07 EMaxC= 1.00D-01 BMatC= 1.16D-11 BMatP= 6.36D-10
 IDIUse=1 WtCom= 1.00D+00 WtEn= 0.00D+00
 Coeff-Com: -0.201D-04 0.341D-03 0.871D-03-0.528D-02 0.729D-02 0.368D-01
 Coeff-Com: -0.275D+00 0.123D+01
 Coeff:     -0.201D-04 0.341D-03 0.871D-03-0.528D-02 0.729D-02 0.368D-01
 Coeff:     -0.275D+00 0.123D+01
 Gap=     0.846 Goal=   None    Shift=    0.000
 RMSDP=1.82D-07 MaxDP=1.81D-06 DE=-1.18D-09 OVMax= 2.34D-06

 Cycle   9  Pass 1  IDiag  1:
 E= -336.655617220004     Delta-E=       -0.000000000022 Rises=F Damp=F
 DIIS: error= 8.95D-08 at cycle   9 NSaved=   9.
 NSaved= 9 IEnMin= 9 EnMin= -336.655617220004     IErMin= 9 ErrMin= 8.95D-08
 ErrMax= 8.95D-08 EMaxC= 1.00D-01 BMatC= 3.48D-13 BMatP= 1.16D-11
 IDIUse=1 WtCom= 1.00D+00 WtEn= 0.00D+00
 Coeff-Com:  0.350D-05-0.609D-04-0.161D-03 0.101D-02-0.176D-02-0.562D-02
 Coeff-Com:  0.573D-01-0.403D+00 0.135D+01
 Coeff:      0.350D-05-0.609D-04-0.161D-03 0.101D-02-0.176D-02-0.562D-02
 Coeff:      0.573D-01-0.403D+00 0.135D+01
 Gap=     0.846 Goal=   None    Shift=    0.000
 RMSDP=3.20D-08 MaxDP=2.78D-07 DE=-2.24D-11 OVMax= 3.13D-07

 Cycle  10  Pass 1  IDiag  1:
 E= -336.655617220005     Delta-E=       -0.000000000001 Rises=F Damp=F
 DIIS: error= 2.11D-08 at cycle  10 NSaved=  10.
 NSaved=10 IEnMin=10 EnMin= -336.655617220005     IErMin=10 ErrMin= 2.11D-08
 ErrMax= 2.11D-08 EMaxC= 1.00D-01 BMatC= 1.20D-14 BMatP= 3.48D-13
 IDIUse=1 WtCom= 1.00D+00 WtEn= 0.00D+00
 Coeff-Com: -0.942D-06 0.167D-04 0.451D-04-0.289D-03 0.593D-03 0.129D-02
 Coeff-Com: -0.168D-01 0.142D+00-0.594D+00 0.147D+01
 Coeff:     -0.942D-06 0.167D-04 0.451D-04-0.289D-03 0.593D-03 0.129D-02
 Coeff:     -0.168D-01 0.142D+00-0.594D+00 0.147D+01
 Gap=     0.846 Goal=   None    Shift=    0.000
 RMSDP=5.84D-09 MaxDP=2.87D-08 DE=-1.14D-12 OVMax= 5.95D-08

 SCF Done:  E(RHF) =  -336.655617220     A.U. after   10 cycles
             Convg  =    0.5838D-08             -V/T =  1.9993
 KE= 3.368817064506D+02 PE=-1.071995200915D+03 EE= 2.643123434753D+02
 Leave Link  502 at Wed May 26 14:31:42 2021, MaxMem=   33554432 cpu:       0.2
 (Enter /home/emil/gauss09/g09/l601.exe)
 Copying SCF densities to generalized density rwf, IOpCl= 0 IROHF=0.

 **********************************************************************

            Population analysis using the SCF density.

 **********************************************************************

 Orbital symmetries:
       Occupied  (E) (E) (A1) (A1) (A1) (E) (E) (A1) (A1) (E) (E)
                 (E) (E) (E) (E) (A2) (A1)
       Virtual   (A1) (E) (E) (A1) (E) (E) (A1) (A1) (A1) (E) (E)
                 (A1) (E) (E) (A2) (E) (E) (A1) (E) (E) (A1)
 The electronic state is 1-A1.
 Alpha  occ. eigenvalues --  -26.35538 -26.35538 -26.35537 -11.53513  -1.76433
 Alpha  occ. eigenvalues --   -1.65731  -1.65731  -1.00126  -0.86635  -0.83038
 Alpha  occ. eigenvalues --   -0.83038  -0.71435  -0.71435  -0.67052  -0.67052
 Alpha  occ. eigenvalues --   -0.66078  -0.60528
 Alpha virt. eigenvalues --    0.24070   0.32266   0.32266   0.41288   0.71002
 Alpha virt. eigenvalues --    0.71002   0.72048   0.92426   1.06053   1.39343
 Alpha virt. eigenvalues --    1.39343   1.51795   1.54301   1.54301   1.67580
 Alpha virt. eigenvalues --    1.73899   1.73899   1.85387   2.30132   2.30132
 Alpha virt. eigenvalues --    2.70707
          Condensed to atoms (all electrons):
              1          2          3          4          5
     1  C    4.081689   0.396758   0.188896   0.188896   0.188896
     2  H    0.396758   0.541589  -0.044838  -0.044838  -0.044838
     3  F    0.188896  -0.044838   9.328363  -0.044372  -0.044372
     4  F    0.188896  -0.044838  -0.044372   9.328363  -0.044372
     5  F    0.188896  -0.044838  -0.044372  -0.044372   9.328363
 Mulliken atomic charges:
              1
     1  C    0.954865
     2  H    0.196167
     3  F   -0.383677
     4  F   -0.383677
     5  F   -0.383677
 Sum of Mulliken atomic charges =   0.00000
 Mulliken charges with hydrogens summed into heavy atoms:
              1
     1  C    1.151032
     3  F   -0.383677
     4  F   -0.383677
     5  F   -0.383677
 Sum of Mulliken charges with hydrogens summed into heavy atoms =   0.00000
 Electronic spatial extent (au):  <R**2>=            208.9463
 Charge=              0.0000 electrons
 Dipole moment (field-independent basis, Debye):
    X=              0.0000    Y=              0.0000    Z=              2.2414  Tot=              2.2414
 Quadrupole moment (field-independent basis, Debye-Ang):
   XX=            -23.2476   YY=            -23.2476   ZZ=            -18.0753
   XY=              0.0000   XZ=              0.0000   YZ=              0.0000
 Traceless Quadrupole moment (field-independent basis, Debye-Ang):
   XX=             -1.7241   YY=             -1.7241   ZZ=              3.4483
   XY=              0.0000   XZ=              0.0000   YZ=              0.0000
 Octapole moment (field-independent basis, Debye-Ang**2):
  XXX=              0.0000  YYY=             -2.5289  ZZZ=              0.3015  XYY=              0.0000
  XXY=              2.5289  XXZ=             -0.0577  XZZ=              0.0000  YZZ=              0.0000
  YYZ=             -0.0577  XYZ=              0.0000
 Hexadecapole moment (field-independent basis, Debye-Ang**3):
 XXXX=            -83.6876 YYYY=            -83.6876 ZZZZ=            -21.2933 XXXY=              0.0000
 XXXZ=              0.0000 YYYX=              0.0000 YYYZ=              0.0286 ZZZX=              0.0000
 ZZZY=              0.0000 XXYY=            -27.8959 XXZZ=            -17.3591 YYZZ=            -17.3591
 XXYZ=             -0.0286 YYXZ=              0.0000 ZZXY=              0.0000
 N-N= 1.341455337695D+02 E-N=-1.071995200931D+03  KE= 3.368817064506D+02
 Symmetry A'   KE= 2.290829876359D+02
 Symmetry A"   KE= 1.077987188147D+02
 No NMR shielding tensors so no spin-rotation constants.
 Leave Link  601 at Wed May 26 14:31:42 2021, MaxMem=   33554432 cpu:       0.1
 (Enter /home/emil/gauss09/g09/l9999.exe)
 1\1\GINC-KONG-SRV\SP\RHF\6-31G\C1H1F3\EMIL\26-May-2021\0\\#P HF/6-31G\
 \CHF3\\0,1\C\H,1,1.0857567\F,1,1.33000206,2,110.47104749\F,1,1.3300020
 6,2,110.47104749,3,120.,0\F,1,1.33000206,2,110.47104749,3,-120.,0\\Ver
 sion=EM64L-G09RevB.01\State=1-A1\HF=-336.6556172\RMSD=5.838e-09\Dipole
 =0.,0.,0.8818165\Quadrupole=-1.2818484,-1.2818484,2.5636968,0.,0.,0.\P
 G=C03V [C3(C1H1),3SGV(F1)]\\@


 FLOATING POINT NUMBERS ARE LIKE SANDPILES:
 EVERY TIME THAT YOU MOVE ONE, YOU LOSE A LITTLE SAND 
 AND YOU PICK UP A LITTLE DIRT.
 Job cpu time:  0 days  0 hours  0 minutes  0.9 seconds.
 File lengths (MBytes):  RWF=      5 Int=      0 D2E=      0 Chk=      1 Scr=      1
 Normal termination of Gaussian 09 at Wed May 26 14:31:42 2021.
