 Entering Gaussian System, Link 0=g09
 Input=ClF3.com
 Output=ClF3.log
 Initial command:
 /home/emil/gauss09/g09/l1.exe /home/emil/scratch/g09/Gau-10011.inp -scrdir=/home/emil/scratch/g09/
 Entering Link 1 = /home/emil/gauss09/g09/l1.exe PID=     10013.
  
 Copyright (c) 1988,1990,1992,1993,1995,1998,2003,2009,2010,
            Gaussian, Inc.  All Rights Reserved.
  
 This is part of the Gaussian(R) 09 program.  It is based on
 the Gaussian(R) 03 system (copyright 2003, Gaussian, Inc.),
 the Gaussian(R) 98 system (copyright 1998, Gaussian, Inc.),
 the Gaussian(R) 94 system (copyright 1995, Gaussian, Inc.),
 the Gaussian 92(TM) system (copyright 1992, Gaussian, Inc.),
 the Gaussian 90(TM) system (copyright 1990, Gaussian, Inc.),
 the Gaussian 88(TM) system (copyright 1988, Gaussian, Inc.),
 the Gaussian 86(TM) system (copyright 1986, Carnegie Mellon
 University), and the Gaussian 82(TM) system (copyright 1983,
 Carnegie Mellon University). Gaussian is a federally registered
 trademark of Gaussian, Inc.
  
 This software contains proprietary and confidential information,
 including trade secrets, belonging to Gaussian, Inc.
  
 This software is provided under written license and may be
 used, copied, transmitted, or stored only in accord with that
 written license.
  
 The following legend is applicable only to US Government
 contracts under FAR:
  
                    RESTRICTED RIGHTS LEGEND
  
 Use, reproduction and disclosure by the US Government is
 subject to restrictions as set forth in subparagraphs (a)
 and (c) of the Commercial Computer Software - Restricted
 Rights clause in FAR 52.227-19.
  
 Gaussian, Inc.
 340 Quinnipiac St., Bldg. 40, Wallingford CT 06492
  
  
 ---------------------------------------------------------------
 Warning -- This program may not be used in any manner that
 competes with the business of Gaussian, Inc. or will provide
 assistance to any competitor of Gaussian, Inc.  The licensee
 of this program is prohibited from giving any competitor of
 Gaussian, Inc. access to this program.  By using this program,
 the user acknowledges that Gaussian, Inc. is engaged in the
 business of creating and licensing software in the field of
 computational chemistry and represents and warrants to the
 licensee that it is not a competitor of Gaussian, Inc. and that
 it will not use this program in any manner prohibited above.
 ---------------------------------------------------------------
  

 Cite this work as:
 Gaussian 09, Revision B.01,
 M. J. Frisch, G. W. Trucks, H. B. Schlegel, G. E. Scuseria, 
 M. A. Robb, J. R. Cheeseman, G. Scalmani, V. Barone, B. Mennucci, 
 G. A. Petersson, H. Nakatsuji, M. Caricato, X. Li, H. P. Hratchian, 
 A. F. Izmaylov, J. Bloino, G. Zheng, J. L. Sonnenberg, M. Hada, 
 M. Ehara, K. Toyota, R. Fukuda, J. Hasegawa, M. Ishida, T. Nakajima, 
 Y. Honda, O. Kitao, H. Nakai, T. Vreven, J. A. Montgomery, Jr., 
 J. E. Peralta, F. Ogliaro, M. Bearpark, J. J. Heyd, E. Brothers, 
 K. N. Kudin, V. N. Staroverov, T. Keith, R. Kobayashi, J. Normand, 
 K. Raghavachari, A. Rendell, J. C. Burant, S. S. Iyengar, J. Tomasi, 
 M. Cossi, N. Rega, J. M. Millam, M. Klene, J. E. Knox, J. B. Cross, 
 V. Bakken, C. Adamo, J. Jaramillo, R. Gomperts, R. E. Stratmann, 
 O. Yazyev, A. J. Austin, R. Cammi, C. Pomelli, J. W. Ochterski, 
 R. L. Martin, K. Morokuma, V. G. Zakrzewski, G. A. Voth, 
 P. Salvador, J. J. Dannenberg, S. Dapprich, A. D. Daniels, 
 O. Farkas, J. B. Foresman, J. V. Ortiz, J. Cioslowski, 
 and D. J. Fox, Gaussian, Inc., Wallingford CT, 2010.
 
 ******************************************
 Gaussian 09:  EM64L-G09RevB.01 12-Aug-2010
                26-May-2021 
 ******************************************
 -----------
 #P HF/6-31G
 -----------
 1/38=1/1;
 2/12=2,17=6,18=5,40=1/2;
 3/5=1,6=6,11=9,16=1,25=1,30=1/1,2,3;
 4//1;
 5/5=2,38=5/2;
 6/7=2,8=2,9=2,10=2,28=1/1;
 99/5=1,9=1/99;
 Leave Link    1 at Wed May 26 14:34:40 2021, MaxMem=          0 cpu:       0.0
 (Enter /home/emil/gauss09/g09/l101.exe)
 ----
 ClF3
 ----
 Symbolic Z-matrix:
 Charge =  0 Multiplicity = 1
 Cl
 F                    1    R1
 F                    1    R2       2    A1
 F                    1    R2       2    A1       3     180.     0
       Variables:
  R1                    1.59303                  
  R2                    1.69554                  
  A1                   87.31143                  
 
 NAtoms=      4 NQM=      4 NQMF=      0 NMic=      0 NMicF=      0 NTot=      4.
                    Isotopes and Nuclear Properties:
 (Nuclear quadrupole moments (NQMom) in fm**2, nuclear magnetic moments (NMagM)
  in nuclear magnetons)

  Atom         1           2           3           4
 IAtWgt=          35          19          19          19
 AtmWgt=  34.9688527  18.9984033  18.9984033  18.9984033
 NucSpn=           3           1           1           1
 AtZEff=   0.0000000   0.0000000   0.0000000   0.0000000
 NQMom=   -8.1650000   0.0000000   0.0000000   0.0000000
 NMagM=    0.8218740   2.6288670   2.6288670   2.6288670
 Leave Link  101 at Wed May 26 14:34:40 2021, MaxMem=   33554432 cpu:       0.1
 (Enter /home/emil/gauss09/g09/l202.exe)
                          Input orientation:                          
 ---------------------------------------------------------------------
 Center     Atomic      Atomic             Coordinates (Angstroms)
 Number     Number       Type             X           Y           Z
 ---------------------------------------------------------------------
      1         17           0        0.000000    0.000000    0.000000
      2          9           0        0.000000    0.000000    1.593027
      3          9           0        1.693676    0.000000    0.079533
      4          9           0       -1.693676    0.000000    0.079533
 ---------------------------------------------------------------------
                    Distance matrix (angstroms):
                    1          2          3          4
     1  Cl   0.000000
     2  F    1.593027   0.000000
     3  F    1.695543   2.271388   0.000000
     4  F    1.695543   2.271388   3.387352   0.000000
 Stoichiometry    ClF3
 Framework group  C2V[C2(FCl),SGV(F2)]
 Deg. of freedom     3
 Full point group                 C2V     NOp   4
 Largest Abelian subgroup         C2V     NOp   4
 Largest concise Abelian subgroup C2      NOp   2
                         Standard orientation:                         
 ---------------------------------------------------------------------
 Center     Atomic      Atomic             Coordinates (Angstroms)
 Number     Number       Type             X           Y           Z
 ---------------------------------------------------------------------
      1         17           0        0.000000    0.000000    0.358383
      2          9           0        0.000000    0.000000   -1.234644
      3          9           0        0.000000    1.693676    0.278850
      4          9           0        0.000000   -1.693676    0.278850
 ---------------------------------------------------------------------
 Rotational constants (GHZ):     13.8821920      4.6367033      3.4757800
 Leave Link  202 at Wed May 26 14:34:40 2021, MaxMem=   33554432 cpu:       0.0
 (Enter /home/emil/gauss09/g09/l301.exe)
 Standard basis: 6-31G (6D, 7F)
 Ernie: Thresh=  0.10000D-02 Tol=  0.10000D-05 Strict=F.
 There are    19 symmetry adapted basis functions of A1  symmetry.
 There are     2 symmetry adapted basis functions of A2  symmetry.
 There are     7 symmetry adapted basis functions of B1  symmetry.
 There are    12 symmetry adapted basis functions of B2  symmetry.
 Integral buffers will be    131072 words long.
 Raffenetti 1 integral format.
 Two-electron integral symmetry is turned on.
    40 basis functions,   112 primitive gaussians,    40 cartesian basis functions
    22 alpha electrons       22 beta electrons
       nuclear repulsion energy       196.7222954518 Hartrees.



 Warning!  Cl atom    1 may be hypervalent but has no d functions.



 IExCor=    0 DFT=F Ex=HF Corr=None ExCW=0 ScaHFX=  1.000000
 ScaDFX=  1.000000  1.000000  1.000000  1.000000 ScalE2=  1.000000  1.000000
 IRadAn=      0 IRanWt=     -1 IRanGd=            0 ICorTp=0
 NAtoms=    4 NActive=    4 NUniq=    3 SFac= 1.78D+00 NAtFMM=   50 NAOKFM=F Big=F
 Leave Link  301 at Wed May 26 14:34:40 2021, MaxMem=   33554432 cpu:       0.0
 (Enter /home/emil/gauss09/g09/l302.exe)
 NPDir=0 NMtPBC=     1 NCelOv=     1 NCel=       1 NClECP=     1 NCelD=      1
         NCelK=      1 NCelE2=     1 NClLst=     1 CellRange=     0.0.
 One-electron integrals computed using PRISM.
 One-electron integral symmetry used in STVInt
 NBasis=    40 RedAO= T  NBF=    19     2     7    12
 NBsUse=    40 1.00D-06 NBFU=    19     2     7    12
 Leave Link  302 at Wed May 26 14:34:40 2021, MaxMem=   33554432 cpu:       0.1
 (Enter /home/emil/gauss09/g09/l303.exe)
 DipDrv:  MaxL=1.
 Leave Link  303 at Wed May 26 14:34:40 2021, MaxMem=   33554432 cpu:       0.0
 (Enter /home/emil/gauss09/g09/l401.exe)
 Harris functional with IExCor=  205 diagonalized for initial guess.
 ExpMin= 1.43D-01 ExpMax= 2.52D+04 ExpMxC= 3.78D+03 IAcc=1 IRadAn=         1 AccDes= 0.00D+00
 HarFok:  IExCor=  205 AccDes= 0.00D+00 IRadAn=         1 IDoV= 1
 ScaDFX=  1.000000  1.000000  1.000000  1.000000
 FoFCou: FMM=F IPFlag=           0 FMFlag=      100000 FMFlg1=           0
         NFxFlg=           0 DoJE=T BraDBF=F KetDBF=T FulRan=T
         Omega=  0.000000  0.000000  1.000000  0.000000  0.000000 ICntrl=     500 IOpCl=  0
         NMat0=    1 NMatS0=    1 NMatT0=    0 NMatD0=    1 NMtDS0=    0 NMtDT0=    0
         I1Cent=           4 NGrid=           0.
 Petite list used in FoFCou.
 Harris En= -756.970189205880    
 Initial guess orbital symmetries:
       Occupied  (A1) (A1) (B2) (A1) (A1) (B2) (A1) (B1) (A1) (B2)
                 (A1) (A1) (B2) (A1) (B1) (B2) (A2) (A1) (B1) (B2)
                 (A1) (B1)
       Virtual   (A1) (B2) (A1) (A1) (B2) (B1) (B2) (A2) (B1) (A1)
                 (A1) (B1) (B2) (A1) (B2) (A1) (A1) (B2)
 The electronic state of the initial guess is 1-A1.
 Leave Link  401 at Wed May 26 14:34:40 2021, MaxMem=   33554432 cpu:       0.1
 (Enter /home/emil/gauss09/g09/l502.exe)
 Closed shell SCF:
 Requested convergence on RMS density matrix=1.00D-08 within 128 cycles.
 Requested convergence on MAX density matrix=1.00D-06.
 Requested convergence on             energy=1.00D-06.
 No special actions if energy rises.
 Using DIIS extrapolation, IDIIS=  1040.
 Integral symmetry usage will be decided dynamically.
 Keep R1 ints in memory in canonical form, NReq=1160190.
 IEnd=       23566 IEndB=       23566 NGot=    33554432 MDV=    33212509
 LenX=    33212509 LenY=    33210468
 Symmetry not used in FoFDir.
 MinBra= 0 MaxBra= 1 Meth= 1.
 IRaf=       0 NMat=   1 IRICut=       1 DoRegI=T DoRafI=F ISym2E= 0 JSym2E=0.

 Cycle   1  Pass 1  IDiag  1:
 E= -757.169023746538    
 DIIS: error= 5.55D-02 at cycle   1 NSaved=   1.
 NSaved= 1 IEnMin= 1 EnMin= -757.169023746538     IErMin= 1 ErrMin= 5.55D-02
 ErrMax= 5.55D-02 EMaxC= 1.00D-01 BMatC= 2.52D-01 BMatP= 2.52D-01
 IDIUse=3 WtCom= 4.45D-01 WtEn= 5.55D-01
 Coeff-Com:  0.100D+01
 Coeff-En:   0.100D+01
 Coeff:      0.100D+01
 Gap=     0.451 Goal=   None    Shift=    0.000
 GapD=    0.451 DampG=2.000 DampE=0.500 DampFc=1.0000 IDamp=-1.
 RMSDP=1.39D-02 MaxDP=1.83D-01              OVMax= 0.00D+00

 Cycle   2  Pass 1  IDiag  1:
 E= -757.275518436831     Delta-E=       -0.106494690293 Rises=F Damp=F
 DIIS: error= 4.15D-02 at cycle   2 NSaved=   2.
 NSaved= 2 IEnMin= 2 EnMin= -757.275518436831     IErMin= 2 ErrMin= 4.15D-02
 ErrMax= 4.15D-02 EMaxC= 1.00D-01 BMatC= 6.95D-02 BMatP= 2.52D-01
 IDIUse=3 WtCom= 5.85D-01 WtEn= 4.15D-01
 Coeff-Com:  0.314D+00 0.686D+00
 Coeff-En:   0.131D-01 0.987D+00
 Coeff:      0.189D+00 0.811D+00
 Gap=     0.551 Goal=   None    Shift=    0.000
 RMSDP=6.07D-03 MaxDP=8.53D-02 DE=-1.06D-01 OVMax= 0.00D+00

 Cycle   3  Pass 1  IDiag  1:
 E= -757.317394170060     Delta-E=       -0.041875733229 Rises=F Damp=F
 DIIS: error= 1.42D-02 at cycle   3 NSaved=   3.
 NSaved= 3 IEnMin= 3 EnMin= -757.317394170060     IErMin= 3 ErrMin= 1.42D-02
 ErrMax= 1.42D-02 EMaxC= 1.00D-01 BMatC= 8.28D-03 BMatP= 6.95D-02
 IDIUse=3 WtCom= 8.58D-01 WtEn= 1.42D-01
 Coeff-Com: -0.175D-01 0.238D+00 0.779D+00
 Coeff-En:   0.000D+00 0.000D+00 0.100D+01
 Coeff:     -0.150D-01 0.204D+00 0.811D+00
 Gap=     0.517 Goal=   None    Shift=    0.000
 RMSDP=1.66D-03 MaxDP=1.73D-02 DE=-4.19D-02 OVMax= 0.00D+00

 Cycle   4  Pass 1  IDiag  1:
 E= -757.323169411106     Delta-E=       -0.005775241046 Rises=F Damp=F
 DIIS: error= 1.79D-03 at cycle   4 NSaved=   4.
 NSaved= 4 IEnMin= 4 EnMin= -757.323169411106     IErMin= 4 ErrMin= 1.79D-03
 ErrMax= 1.79D-03 EMaxC= 1.00D-01 BMatC= 1.53D-04 BMatP= 8.28D-03
 IDIUse=3 WtCom= 9.82D-01 WtEn= 1.79D-02
 Coeff-Com: -0.508D-02-0.748D-01-0.712D-01 0.115D+01
 Coeff-En:   0.000D+00 0.000D+00 0.000D+00 0.100D+01
 Coeff:     -0.499D-02-0.735D-01-0.700D-01 0.115D+01
 Gap=     0.519 Goal=   None    Shift=    0.000
 RMSDP=4.17D-04 MaxDP=2.61D-03 DE=-5.78D-03 OVMax= 0.00D+00

 Cycle   5  Pass 1  IDiag  1:
 E= -757.323382721454     Delta-E=       -0.000213310348 Rises=F Damp=F
 DIIS: error= 3.50D-04 at cycle   5 NSaved=   5.
 NSaved= 5 IEnMin= 5 EnMin= -757.323382721454     IErMin= 5 ErrMin= 3.50D-04
 ErrMax= 3.50D-04 EMaxC= 1.00D-01 BMatC= 7.37D-06 BMatP= 1.53D-04
 IDIUse=3 WtCom= 9.97D-01 WtEn= 3.50D-03
 Coeff-Com:  0.345D-02-0.519D-02-0.449D-01-0.265D+00 0.131D+01
 Coeff-En:   0.000D+00 0.000D+00 0.000D+00 0.000D+00 0.100D+01
 Coeff:      0.344D-02-0.517D-02-0.447D-01-0.264D+00 0.131D+01
 Gap=     0.519 Goal=   None    Shift=    0.000
 RMSDP=2.11D-04 MaxDP=2.20D-03 DE=-2.13D-04 OVMax= 0.00D+00

 Cycle   6  Pass 1  IDiag  1:
 E= -757.323408598576     Delta-E=       -0.000025877122 Rises=F Damp=F
 DIIS: error= 1.01D-04 at cycle   6 NSaved=   6.
 NSaved= 6 IEnMin= 6 EnMin= -757.323408598576     IErMin= 6 ErrMin= 1.01D-04
 ErrMax= 1.01D-04 EMaxC= 1.00D-01 BMatC= 5.17D-07 BMatP= 7.37D-06
 IDIUse=3 WtCom= 9.99D-01 WtEn= 1.01D-03
 Coeff-Com: -0.468D-04 0.570D-02 0.118D-01-0.537D-01-0.116D+00 0.115D+01
 Coeff-En:   0.000D+00 0.000D+00 0.000D+00 0.000D+00 0.000D+00 0.100D+01
 Coeff:     -0.468D-04 0.569D-02 0.118D-01-0.537D-01-0.116D+00 0.115D+01
 Gap=     0.519 Goal=   None    Shift=    0.000
 RMSDP=5.46D-05 MaxDP=5.52D-04 DE=-2.59D-05 OVMax= 0.00D+00

 Cycle   7  Pass 1  IDiag  1:
 E= -757.323410358377     Delta-E=       -0.000001759800 Rises=F Damp=F
 DIIS: error= 5.15D-05 at cycle   7 NSaved=   7.
 NSaved= 7 IEnMin= 7 EnMin= -757.323410358377     IErMin= 7 ErrMin= 5.15D-05
 ErrMax= 5.15D-05 EMaxC= 1.00D-01 BMatC= 9.90D-08 BMatP= 5.17D-07
 IDIUse=1 WtCom= 1.00D+00 WtEn= 0.00D+00
 Coeff-Com: -0.357D-03 0.260D-02 0.861D-02 0.261D-02-0.174D+00 0.310D+00
 Coeff-Com:  0.850D+00
 Coeff:     -0.357D-03 0.260D-02 0.861D-02 0.261D-02-0.174D+00 0.310D+00
 Coeff:      0.850D+00
 Gap=     0.519 Goal=   None    Shift=    0.000
 RMSDP=1.97D-05 MaxDP=1.61D-04 DE=-1.76D-06 OVMax= 0.00D+00

 Cycle   8  Pass 1  IDiag  1:
 E= -757.323410606597     Delta-E=       -0.000000248220 Rises=F Damp=F
 DIIS: error= 1.84D-05 at cycle   8 NSaved=   8.
 NSaved= 8 IEnMin= 8 EnMin= -757.323410606597     IErMin= 8 ErrMin= 1.84D-05
 ErrMax= 1.84D-05 EMaxC= 1.00D-01 BMatC= 1.51D-08 BMatP= 9.90D-08
 IDIUse=1 WtCom= 1.00D+00 WtEn= 0.00D+00
 Coeff-Com:  0.223D-03-0.241D-02-0.650D-02 0.607D-02 0.124D+00-0.397D+00
 Coeff-Com: -0.263D+00 0.154D+01
 Coeff:      0.223D-03-0.241D-02-0.650D-02 0.607D-02 0.124D+00-0.397D+00
 Coeff:     -0.263D+00 0.154D+01
 Gap=     0.519 Goal=   None    Shift=    0.000
 RMSDP=9.38D-06 MaxDP=4.82D-05 DE=-2.48D-07 OVMax= 0.00D+00

 Cycle   9  Pass 1  IDiag  1:
 E= -757.323410652243     Delta-E=       -0.000000045645 Rises=F Damp=F
 DIIS: error= 3.66D-06 at cycle   9 NSaved=   9.
 NSaved= 9 IEnMin= 9 EnMin= -757.323410652243     IErMin= 9 ErrMin= 3.66D-06
 ErrMax= 3.66D-06 EMaxC= 1.00D-01 BMatC= 4.60D-10 BMatP= 1.51D-08
 IDIUse=1 WtCom= 1.00D+00 WtEn= 0.00D+00
 Coeff-Com: -0.592D-04 0.676D-03 0.182D-02-0.205D-02-0.364D-01 0.120D+00
 Coeff-Com:  0.841D-01-0.604D+00 0.144D+01
 Coeff:     -0.592D-04 0.676D-03 0.182D-02-0.205D-02-0.364D-01 0.120D+00
 Coeff:      0.841D-01-0.604D+00 0.144D+01
 Gap=     0.519 Goal=   None    Shift=    0.000
 RMSDP=1.62D-06 MaxDP=1.03D-05 DE=-4.56D-08 OVMax= 0.00D+00

 Cycle  10  Pass 1  IDiag  1:
 E= -757.323410653694     Delta-E=       -0.000000001451 Rises=F Damp=F
 DIIS: error= 8.13D-07 at cycle  10 NSaved=  10.
 NSaved=10 IEnMin=10 EnMin= -757.323410653694     IErMin=10 ErrMin= 8.13D-07
 ErrMax= 8.13D-07 EMaxC= 1.00D-01 BMatC= 1.61D-11 BMatP= 4.60D-10
 IDIUse=1 WtCom= 1.00D+00 WtEn= 0.00D+00
 Coeff-Com:  0.742D-05-0.849D-04-0.245D-03 0.365D-03 0.519D-02-0.176D-01
 Coeff-Com: -0.136D-01 0.107D+00-0.389D+00 0.131D+01
 Coeff:      0.742D-05-0.849D-04-0.245D-03 0.365D-03 0.519D-02-0.176D-01
 Coeff:     -0.136D-01 0.107D+00-0.389D+00 0.131D+01
 Gap=     0.519 Goal=   None    Shift=    0.000
 RMSDP=2.61D-07 MaxDP=2.37D-06 DE=-1.45D-09 OVMax= 0.00D+00

 Cycle  11  Pass 1  IDiag  1:
 E= -757.323410653748     Delta-E=       -0.000000000055 Rises=F Damp=F
 DIIS: error= 2.24D-07 at cycle  11 NSaved=  11.
 NSaved=11 IEnMin=11 EnMin= -757.323410653748     IErMin=11 ErrMin= 2.24D-07
 ErrMax= 2.24D-07 EMaxC= 1.00D-01 BMatC= 1.18D-12 BMatP= 1.61D-11
 IDIUse=1 WtCom= 1.00D+00 WtEn= 0.00D+00
 Coeff-Com: -0.114D-05 0.120D-04 0.407D-04-0.840D-04-0.995D-03 0.346D-02
 Coeff-Com:  0.275D-02-0.254D-01 0.132D+00-0.707D+00 0.159D+01
 Coeff:     -0.114D-05 0.120D-04 0.407D-04-0.840D-04-0.995D-03 0.346D-02
 Coeff:      0.275D-02-0.254D-01 0.132D+00-0.707D+00 0.159D+01
 Gap=     0.519 Goal=   None    Shift=    0.000
 RMSDP=9.52D-08 MaxDP=6.33D-07 DE=-5.46D-11 OVMax= 0.00D+00

 Cycle  12  Pass 1  IDiag  1:
 E= -757.323410653753     Delta-E=       -0.000000000005 Rises=F Damp=F
 DIIS: error= 3.02D-08 at cycle  12 NSaved=  12.
 NSaved=12 IEnMin=12 EnMin= -757.323410653753     IErMin=12 ErrMin= 3.02D-08
 ErrMax= 3.02D-08 EMaxC= 1.00D-01 BMatC= 3.66D-14 BMatP= 1.18D-12
 IDIUse=1 WtCom= 1.00D+00 WtEn= 0.00D+00
 Coeff-Com: -0.388D-07 0.687D-06-0.272D-06 0.676D-05 0.639D-04-0.169D-03
 Coeff-Com: -0.479D-03 0.307D-02-0.218D-01 0.152D+00-0.475D+00 0.134D+01
 Coeff:     -0.388D-07 0.687D-06-0.272D-06 0.676D-05 0.639D-04-0.169D-03
 Coeff:     -0.479D-03 0.307D-02-0.218D-01 0.152D+00-0.475D+00 0.134D+01
 Gap=     0.519 Goal=   None    Shift=    0.000
 RMSDP=1.45D-08 MaxDP=6.90D-08 DE=-4.55D-12 OVMax= 0.00D+00

 Cycle  13  Pass 1  IDiag  1:
 E= -757.323410653750     Delta-E=        0.000000000003 Rises=F Damp=F
 DIIS: error= 7.33D-09 at cycle  13 NSaved=  13.
 NSaved=13 IEnMin=12 EnMin= -757.323410653753     IErMin=13 ErrMin= 7.33D-09
 ErrMax= 7.33D-09 EMaxC= 1.00D-01 BMatC= 1.20D-15 BMatP= 3.66D-14
 IDIUse=1 WtCom= 1.00D+00 WtEn= 0.00D+00
 Coeff-Com: -0.119D-07 0.344D-08 0.723D-06-0.131D-05-0.310D-04 0.796D-04
 Coeff-Com:  0.144D-03-0.894D-03 0.523D-02-0.365D-01 0.126D+00-0.499D+00
 Coeff-Com:  0.141D+01
 Coeff:     -0.119D-07 0.344D-08 0.723D-06-0.131D-05-0.310D-04 0.796D-04
 Coeff:      0.144D-03-0.894D-03 0.523D-02-0.365D-01 0.126D+00-0.499D+00
 Coeff:      0.141D+01
 Gap=     0.519 Goal=   None    Shift=    0.000
 RMSDP=2.21D-09 MaxDP=2.67D-08 DE= 2.96D-12 OVMax= 0.00D+00

 SCF Done:  E(RHF) =  -757.323410654     A.U. after   13 cycles
             Convg  =    0.2213D-08             -V/T =  1.9992
 KE= 7.579568348612D+02 PE=-2.199749761415D+03 EE= 4.877472204481D+02
 Leave Link  502 at Wed May 26 14:34:40 2021, MaxMem=   33554432 cpu:       0.1
 (Enter /home/emil/gauss09/g09/l601.exe)
 Copying SCF densities to generalized density rwf, IOpCl= 0 IROHF=0.

 **********************************************************************

            Population analysis using the SCF density.

 **********************************************************************

 Orbital symmetries:
       Occupied  (A1) (A1) (B2) (A1) (A1) (B2) (A1) (B1) (A1) (A1)
                 (B2) (A1) (B2) (B1) (A1) (B2) (B1) (A2) (B2) (A1)
                 (B1) (A1)
       Virtual   (A1) (B2) (A1) (B1) (A1) (B2) (B2) (B1) (A2) (A1)
                 (B1) (A1) (A1) (B2) (B2) (A1) (A1) (B2)
 The electronic state is 1-A1.
 Alpha  occ. eigenvalues -- -105.14175 -26.44755 -26.29460 -26.29457 -10.86778
 Alpha  occ. eigenvalues --   -8.33296  -8.33186  -8.32642  -1.77171  -1.59771
 Alpha  occ. eigenvalues --   -1.59356  -1.21223  -0.83902  -0.83599  -0.81484
 Alpha  occ. eigenvalues --   -0.74605  -0.70685  -0.65609  -0.63423  -0.63200
 Alpha  occ. eigenvalues --   -0.55799  -0.51349
 Alpha virt. eigenvalues --    0.00520   0.10337   0.45202   0.51851   0.52026
 Alpha virt. eigenvalues --    0.56921   1.26195   1.40792   1.44969   1.50329
 Alpha virt. eigenvalues --    1.57765   1.58009   1.60387   1.62240   1.74867
 Alpha virt. eigenvalues --    1.83811   1.98831   2.38896
          Condensed to atoms (all electrons):
              1          2          3          4
     1  Cl  15.663246   0.050150  -0.068364  -0.068364
     2  F    0.050150   9.335393  -0.031882  -0.031882
     3  F   -0.068364  -0.031882   9.648762   0.002260
     4  F   -0.068364  -0.031882   0.002260   9.648762
 Mulliken atomic charges:
              1
     1  Cl   1.423331
     2  F   -0.321778
     3  F   -0.550776
     4  F   -0.550776
 Sum of Mulliken atomic charges =   0.00000
 Mulliken charges with hydrogens summed into heavy atoms:
              1
     1  Cl   1.423331
     2  F   -0.321778
     3  F   -0.550776
     4  F   -0.550776
 Sum of Mulliken charges with hydrogens summed into heavy atoms =   0.00000
 Electronic spatial extent (au):  <R**2>=            312.2843
 Charge=              0.0000 electrons
 Dipole moment (field-independent basis, Debye):
    X=              0.0000    Y=              0.0000    Z=              0.9551  Tot=              0.9551
 Quadrupole moment (field-independent basis, Debye-Ang):
   XX=            -25.3373   YY=            -37.6709   ZZ=            -25.9116
   XY=              0.0000   XZ=              0.0000   YZ=              0.0000
 Traceless Quadrupole moment (field-independent basis, Debye-Ang):
   XX=              4.3027   YY=             -8.0310   ZZ=              3.7283
   XY=              0.0000   XZ=              0.0000   YZ=              0.0000
 Octapole moment (field-independent basis, Debye-Ang**2):
  XXX=              0.0000  YYY=              0.0000  ZZZ=              0.3479  XYY=              0.0000
  XXY=              0.0000  XXZ=             -1.0909  XZZ=              0.0000  YZZ=              0.0000
  YYZ=             -4.0339  XYZ=              0.0000
 Hexadecapole moment (field-independent basis, Debye-Ang**3):
 XXXX=            -17.9269 YYYY=           -230.3199 ZZZZ=            -72.1955 XXXY=              0.0000
 XXXZ=              0.0000 YYYX=              0.0000 YYYZ=              0.0000 ZZZX=              0.0000
 ZZZY=              0.0000 XXYY=            -34.8951 XXZZ=            -15.3147 YYZZ=            -44.9136
 XXYZ=              0.0000 YYXZ=              0.0000 ZZXY=              0.0000
 N-N= 1.967222954518D+02 E-N=-2.199749761363D+03  KE= 7.579568348612D+02
 Symmetry A1   KE= 5.495860643745D+02
 Symmetry A2   KE= 6.279111276272D+00
 Symmetry B1   KE= 5.995246690652D+01
 Symmetry B2   KE= 1.421391923039D+02
 No NMR shielding tensors so no spin-rotation constants.
 Leave Link  601 at Wed May 26 14:34:40 2021, MaxMem=   33554432 cpu:       0.1
 (Enter /home/emil/gauss09/g09/l9999.exe)
 1\1\GINC-KONG-SRV\SP\RHF\6-31G\Cl1F3\EMIL\26-May-2021\0\\#P HF/6-31G\\
 ClF3\\0,1\Cl\F,1,1.59302728\F,1,1.69554261,2,87.31142507\F,1,1.6955426
 1,2,87.31142507,3,180.,0\\Version=EM64L-G09RevB.01\State=1-A1\HF=-757.
 3234107\RMSD=2.213e-09\Dipole=0.,0.,-0.3757804\Quadrupole=-5.9708521,3
 .1989382,2.7719139,0.,0.,0.\PG=C02V [C2(F1Cl1),SGV(F2)]\\@


 ALMOST ANYTHING IS EASIER TO GET INTO THAN OUT OF.

                         -- AGNES ALLEN'S LAW FROM
                PAUL DICKSON'S "THE OFFICIAL RULES"
 Job cpu time:  0 days  0 hours  0 minutes  0.6 seconds.
 File lengths (MBytes):  RWF=      5 Int=      0 D2E=      0 Chk=      1 Scr=      1
 Normal termination of Gaussian 09 at Wed May 26 14:34:40 2021.
