 Entering Gaussian System, Link 0=g09
 Input=CO2.com
 Output=CO2.log
 Initial command:
 /home/emil/gauss09/g09/l1.exe /home/emil/scratch/g09/Gau-10020.inp -scrdir=/home/emil/scratch/g09/
 Entering Link 1 = /home/emil/gauss09/g09/l1.exe PID=     10022.
  
 Copyright (c) 1988,1990,1992,1993,1995,1998,2003,2009,2010,
            Gaussian, Inc.  All Rights Reserved.
  
 This is part of the Gaussian(R) 09 program.  It is based on
 the Gaussian(R) 03 system (copyright 2003, Gaussian, Inc.),
 the Gaussian(R) 98 system (copyright 1998, Gaussian, Inc.),
 the Gaussian(R) 94 system (copyright 1995, Gaussian, Inc.),
 the Gaussian 92(TM) system (copyright 1992, Gaussian, Inc.),
 the Gaussian 90(TM) system (copyright 1990, Gaussian, Inc.),
 the Gaussian 88(TM) system (copyright 1988, Gaussian, Inc.),
 the Gaussian 86(TM) system (copyright 1986, Carnegie Mellon
 University), and the Gaussian 82(TM) system (copyright 1983,
 Carnegie Mellon University). Gaussian is a federally registered
 trademark of Gaussian, Inc.
  
 This software contains proprietary and confidential information,
 including trade secrets, belonging to Gaussian, Inc.
  
 This software is provided under written license and may be
 used, copied, transmitted, or stored only in accord with that
 written license.
  
 The following legend is applicable only to US Government
 contracts under FAR:
  
                    RESTRICTED RIGHTS LEGEND
  
 Use, reproduction and disclosure by the US Government is
 subject to restrictions as set forth in subparagraphs (a)
 and (c) of the Commercial Computer Software - Restricted
 Rights clause in FAR 52.227-19.
  
 Gaussian, Inc.
 340 Quinnipiac St., Bldg. 40, Wallingford CT 06492
  
  
 ---------------------------------------------------------------
 Warning -- This program may not be used in any manner that
 competes with the business of Gaussian, Inc. or will provide
 assistance to any competitor of Gaussian, Inc.  The licensee
 of this program is prohibited from giving any competitor of
 Gaussian, Inc. access to this program.  By using this program,
 the user acknowledges that Gaussian, Inc. is engaged in the
 business of creating and licensing software in the field of
 computational chemistry and represents and warrants to the
 licensee that it is not a competitor of Gaussian, Inc. and that
 it will not use this program in any manner prohibited above.
 ---------------------------------------------------------------
  

 Cite this work as:
 Gaussian 09, Revision B.01,
 M. J. Frisch, G. W. Trucks, H. B. Schlegel, G. E. Scuseria, 
 M. A. Robb, J. R. Cheeseman, G. Scalmani, V. Barone, B. Mennucci, 
 G. A. Petersson, H. Nakatsuji, M. Caricato, X. Li, H. P. Hratchian, 
 A. F. Izmaylov, J. Bloino, G. Zheng, J. L. Sonnenberg, M. Hada, 
 M. Ehara, K. Toyota, R. Fukuda, J. Hasegawa, M. Ishida, T. Nakajima, 
 Y. Honda, O. Kitao, H. Nakai, T. Vreven, J. A. Montgomery, Jr., 
 J. E. Peralta, F. Ogliaro, M. Bearpark, J. J. Heyd, E. Brothers, 
 K. N. Kudin, V. N. Staroverov, T. Keith, R. Kobayashi, J. Normand, 
 K. Raghavachari, A. Rendell, J. C. Burant, S. S. Iyengar, J. Tomasi, 
 M. Cossi, N. Rega, J. M. Millam, M. Klene, J. E. Knox, J. B. Cross, 
 V. Bakken, C. Adamo, J. Jaramillo, R. Gomperts, R. E. Stratmann, 
 O. Yazyev, A. J. Austin, R. Cammi, C. Pomelli, J. W. Ochterski, 
 R. L. Martin, K. Morokuma, V. G. Zakrzewski, G. A. Voth, 
 P. Salvador, J. J. Dannenberg, S. Dapprich, A. D. Daniels, 
 O. Farkas, J. B. Foresman, J. V. Ortiz, J. Cioslowski, 
 and D. J. Fox, Gaussian, Inc., Wallingford CT, 2010.
 
 ******************************************
 Gaussian 09:  EM64L-G09RevB.01 12-Aug-2010
                26-May-2021 
 ******************************************
 -----------
 #P HF/6-31G
 -----------
 1/38=1/1;
 2/12=2,17=6,18=5,40=1/2;
 3/5=1,6=6,11=9,16=1,25=1,30=1/1,2,3;
 4//1;
 5/5=2,38=5/2;
 6/7=2,8=2,9=2,10=2,28=1/1;
 99/5=1,9=1/99;
 Leave Link    1 at Wed May 26 14:36:41 2021, MaxMem=          0 cpu:       0.0
 (Enter /home/emil/gauss09/g09/l101.exe)
 ---
 CO2
 ---
 Symbolic Z-matrix:
 Charge =  0 Multiplicity = 1
 C
 O                    1    R
 X                    1     1.       2     90. 
 O                    1    R        3     90.      2     180.     0
       Variables:
  R                     1.15948                  
 
 NAtoms=      3 NQM=      3 NQMF=      0 NMic=      0 NMicF=      0 NTot=      3.
                    Isotopes and Nuclear Properties:
 (Nuclear quadrupole moments (NQMom) in fm**2, nuclear magnetic moments (NMagM)
  in nuclear magnetons)

  Atom         1           2           3
 IAtWgt=          12          16          16
 AtmWgt=  12.0000000  15.9949146  15.9949146
 NucSpn=           0           0           0
 AtZEff=   0.0000000   0.0000000   0.0000000
 NQMom=    0.0000000   0.0000000   0.0000000
 NMagM=    0.0000000   0.0000000   0.0000000
 Leave Link  101 at Wed May 26 14:36:41 2021, MaxMem=   33554432 cpu:       0.1
 (Enter /home/emil/gauss09/g09/l202.exe)
                          Input orientation:                          
 ---------------------------------------------------------------------
 Center     Atomic      Atomic             Coordinates (Angstroms)
 Number     Number       Type             X           Y           Z
 ---------------------------------------------------------------------
      1          6           0        0.000000    0.000000    0.000000
      2          8           0        0.000000    0.000000    1.159485
      3          8           0        0.000000    0.000000   -1.159485
 ---------------------------------------------------------------------
                    Distance matrix (angstroms):
                    1          2          3
     1  C    0.000000
     2  O    1.159485   0.000000
     3  O    1.159485   2.318969   0.000000
 Stoichiometry    CO2
 Framework group  D*H[O(C),C*(O.O)]
 Deg. of freedom     1
 Full point group                 D*H     NOp   8
 Largest Abelian subgroup         D2H     NOp   8
 Largest concise Abelian subgroup C2      NOp   2
                         Standard orientation:                         
 ---------------------------------------------------------------------
 Center     Atomic      Atomic             Coordinates (Angstroms)
 Number     Number       Type             X           Y           Z
 ---------------------------------------------------------------------
      1          6           0        0.000000    0.000000    0.000000
      2          8           0        0.000000    0.000000    1.159485
      3          8           0        0.000000    0.000000   -1.159485
 ---------------------------------------------------------------------
 Rotational constants (GHZ):      0.0000000     11.7510129     11.7510129
 Leave Link  202 at Wed May 26 14:36:41 2021, MaxMem=   33554432 cpu:       0.0
 (Enter /home/emil/gauss09/g09/l301.exe)
 Standard basis: 6-31G (6D, 7F)
 Ernie: Thresh=  0.10000D-02 Tol=  0.10000D-05 Strict=F.
 There are     8 symmetry adapted basis functions of AG  symmetry.
 There are     0 symmetry adapted basis functions of B1G symmetry.
 There are     2 symmetry adapted basis functions of B2G symmetry.
 There are     2 symmetry adapted basis functions of B3G symmetry.
 There are     0 symmetry adapted basis functions of AU  symmetry.
 There are     7 symmetry adapted basis functions of B1U symmetry.
 There are     4 symmetry adapted basis functions of B2U symmetry.
 There are     4 symmetry adapted basis functions of B3U symmetry.
 Integral buffers will be    131072 words long.
 Raffenetti 1 integral format.
 Two-electron integral symmetry is turned on.
    27 basis functions,    66 primitive gaussians,    27 cartesian basis functions
    11 alpha electrons       11 beta electrons
       nuclear repulsion energy        58.4179235322 Hartrees.
 IExCor=    0 DFT=F Ex=HF Corr=None ExCW=0 ScaHFX=  1.000000
 ScaDFX=  1.000000  1.000000  1.000000  1.000000 ScalE2=  1.000000  1.000000
 IRadAn=      0 IRanWt=     -1 IRanGd=            0 ICorTp=0
 NAtoms=    3 NActive=    3 NUniq=    2 SFac= 2.25D+00 NAtFMM=   50 NAOKFM=F Big=F
 Leave Link  301 at Wed May 26 14:36:41 2021, MaxMem=   33554432 cpu:       0.0
 (Enter /home/emil/gauss09/g09/l302.exe)
 NPDir=0 NMtPBC=     1 NCelOv=     1 NCel=       1 NClECP=     1 NCelD=      1
         NCelK=      1 NCelE2=     1 NClLst=     1 CellRange=     0.0.
 One-electron integrals computed using PRISM.
 One-electron integral symmetry used in STVInt
 NBasis=    27 RedAO= T  NBF=     8     0     2     2     0     7     4     4
 NBsUse=    27 1.00D-06 NBFU=     8     0     2     2     0     7     4     4
 Leave Link  302 at Wed May 26 14:36:41 2021, MaxMem=   33554432 cpu:       0.1
 (Enter /home/emil/gauss09/g09/l303.exe)
 DipDrv:  MaxL=1.
 Leave Link  303 at Wed May 26 14:36:41 2021, MaxMem=   33554432 cpu:       0.1
 (Enter /home/emil/gauss09/g09/l401.exe)
 Harris functional with IExCor=  205 diagonalized for initial guess.
 ExpMin= 1.69D-01 ExpMax= 5.48D+03 ExpMxC= 8.25D+02 IAcc=1 IRadAn=         1 AccDes= 0.00D+00
 HarFok:  IExCor=  205 AccDes= 0.00D+00 IRadAn=         1 IDoV= 1
 ScaDFX=  1.000000  1.000000  1.000000  1.000000
 FoFCou: FMM=F IPFlag=           0 FMFlag=      100000 FMFlg1=           0
         NFxFlg=           0 DoJE=T BraDBF=F KetDBF=T FulRan=T
         Omega=  0.000000  0.000000  1.000000  0.000000  0.000000 ICntrl=     500 IOpCl=  0
         NMat0=    1 NMatS0=    1 NMatT0=    0 NMatD0=    1 NMtDS0=    0 NMtDT0=    0
         I1Cent=           4 NGrid=           0.
 Petite list used in FoFCou.
 Harris En= -187.570561089573    
 Initial guess orbital symmetries:
       Occupied  (SGU) (SGG) (SGG) (SGG) (SGU) (SGG) (SGU) (PIU)
                 (PIU) (PIG) (PIG)
       Virtual   (PIU) (PIU) (SGG) (SGU) (PIU) (PIU) (SGG) (SGU)
                 (SGG) (PIG) (PIG) (SGU) (PIU) (PIU) (SGG) (SGU)
 The electronic state of the initial guess is 1-SGG.
 Leave Link  401 at Wed May 26 14:36:42 2021, MaxMem=   33554432 cpu:       0.3
 (Enter /home/emil/gauss09/g09/l502.exe)
 Closed shell SCF:
 Requested convergence on RMS density matrix=1.00D-08 within 128 cycles.
 Requested convergence on MAX density matrix=1.00D-06.
 Requested convergence on             energy=1.00D-06.
 No special actions if energy rises.
 Using DIIS extrapolation, IDIIS=  1040.
 Integral symmetry usage will be decided dynamically.
 Keep R1 ints in memory in canonical form, NReq=892434.
 IEnd=       20789 IEndB=       20789 NGot=    33554432 MDV=    33479381
 LenX=    33479381 LenY=    33478211
 Symmetry not used in FoFDir.
 MinBra= 0 MaxBra= 1 Meth= 1.
 IRaf=       0 NMat=   1 IRICut=       1 DoRegI=T DoRafI=F ISym2E= 0 JSym2E=0.

 Cycle   1  Pass 1  IDiag  1:
 E= -187.452834725800    
 DIIS: error= 5.38D-02 at cycle   1 NSaved=   1.
 NSaved= 1 IEnMin= 1 EnMin= -187.452834725800     IErMin= 1 ErrMin= 5.38D-02
 ErrMax= 5.38D-02 EMaxC= 1.00D-01 BMatC= 1.14D-01 BMatP= 1.14D-01
 IDIUse=3 WtCom= 4.62D-01 WtEn= 5.38D-01
 Coeff-Com:  0.100D+01
 Coeff-En:   0.100D+01
 Coeff:      0.100D+01
 Gap=     0.672 Goal=   None    Shift=    0.000
 GapD=    0.672 DampG=2.000 DampE=0.500 DampFc=1.0000 IDamp=-1.
 RMSDP=9.93D-03 MaxDP=7.22D-02              OVMax= 6.88D-02

 Cycle   2  Pass 1  IDiag  1:
 E= -187.490693979924     Delta-E=       -0.037859254124 Rises=F Damp=F
 DIIS: error= 3.14D-02 at cycle   2 NSaved=   2.
 NSaved= 2 IEnMin= 2 EnMin= -187.490693979924     IErMin= 2 ErrMin= 3.14D-02
 ErrMax= 3.14D-02 EMaxC= 1.00D-01 BMatC= 3.30D-02 BMatP= 1.14D-01
 IDIUse=3 WtCom= 6.86D-01 WtEn= 3.14D-01
 Coeff-Com:  0.321D+00 0.679D+00
 Coeff-En:   0.149D+00 0.851D+00
 Coeff:      0.267D+00 0.733D+00
 Gap=     0.729 Goal=   None    Shift=    0.000
 RMSDP=4.81D-03 MaxDP=3.12D-02 DE=-3.79D-02 OVMax= 5.14D-02

 Cycle   3  Pass 1  IDiag  1:
 E= -187.513027213107     Delta-E=       -0.022333233182 Rises=F Damp=F
 DIIS: error= 1.15D-02 at cycle   3 NSaved=   3.
 NSaved= 3 IEnMin= 3 EnMin= -187.513027213107     IErMin= 3 ErrMin= 1.15D-02
 ErrMax= 1.15D-02 EMaxC= 1.00D-01 BMatC= 2.56D-03 BMatP= 3.30D-02
 IDIUse=3 WtCom= 8.85D-01 WtEn= 1.15D-01
 Coeff-Com: -0.344D-01 0.182D+00 0.852D+00
 Coeff-En:   0.000D+00 0.000D+00 0.100D+01
 Coeff:     -0.305D-01 0.161D+00 0.869D+00
 Gap=     0.718 Goal=   None    Shift=    0.000
 RMSDP=1.35D-03 MaxDP=1.27D-02 DE=-2.23D-02 OVMax= 8.20D-03

 Cycle   4  Pass 1  IDiag  1:
 E= -187.514888553041     Delta-E=       -0.001861339934 Rises=F Damp=F
 DIIS: error= 1.37D-03 at cycle   4 NSaved=   4.
 NSaved= 4 IEnMin= 4 EnMin= -187.514888553041     IErMin= 4 ErrMin= 1.37D-03
 ErrMax= 1.37D-03 EMaxC= 1.00D-01 BMatC= 2.51D-05 BMatP= 2.56D-03
 IDIUse=3 WtCom= 9.86D-01 WtEn= 1.37D-02
 Coeff-Com:  0.276D-02-0.556D-01-0.151D+00 0.120D+01
 Coeff-En:   0.000D+00 0.000D+00 0.000D+00 0.100D+01
 Coeff:      0.272D-02-0.549D-01-0.149D+00 0.120D+01
 Gap=     0.720 Goal=   None    Shift=    0.000
 RMSDP=2.63D-04 MaxDP=2.00D-03 DE=-1.86D-03 OVMax= 2.95D-03

 Cycle   5  Pass 1  IDiag  1:
 E= -187.514938858359     Delta-E=       -0.000050305318 Rises=F Damp=F
 DIIS: error= 4.37D-04 at cycle   5 NSaved=   5.
 NSaved= 5 IEnMin= 5 EnMin= -187.514938858359     IErMin= 5 ErrMin= 4.37D-04
 ErrMax= 4.37D-04 EMaxC= 1.00D-01 BMatC= 2.46D-06 BMatP= 2.51D-05
 IDIUse=3 WtCom= 9.96D-01 WtEn= 4.37D-03
 Coeff-Com:  0.218D-02-0.106D-01-0.729D-01-0.554D-01 0.114D+01
 Coeff-En:   0.000D+00 0.000D+00 0.000D+00 0.000D+00 0.100D+01
 Coeff:      0.217D-02-0.105D-01-0.726D-01-0.552D-01 0.114D+01
 Gap=     0.720 Goal=   None    Shift=    0.000
 RMSDP=1.10D-04 MaxDP=8.48D-04 DE=-5.03D-05 OVMax= 4.14D-04

 Cycle   6  Pass 1  IDiag  1:
 E= -187.514942877188     Delta-E=       -0.000004018829 Rises=F Damp=F
 DIIS: error= 5.47D-05 at cycle   6 NSaved=   6.
 NSaved= 6 IEnMin= 6 EnMin= -187.514942877188     IErMin= 6 ErrMin= 5.47D-05
 ErrMax= 5.47D-05 EMaxC= 1.00D-01 BMatC= 6.36D-08 BMatP= 2.46D-06
 IDIUse=1 WtCom= 1.00D+00 WtEn= 0.00D+00
 Coeff-Com: -0.767D-03 0.633D-02 0.294D-01-0.317D-01-0.384D+00 0.138D+01
 Coeff:     -0.767D-03 0.633D-02 0.294D-01-0.317D-01-0.384D+00 0.138D+01
 Gap=     0.720 Goal=   None    Shift=    0.000
 RMSDP=1.98D-05 MaxDP=1.29D-04 DE=-4.02D-06 OVMax= 9.52D-05

 Cycle   7  Pass 1  IDiag  1:
 E= -187.514942994467     Delta-E=       -0.000000117279 Rises=F Damp=F
 DIIS: error= 3.61D-06 at cycle   7 NSaved=   7.
 NSaved= 7 IEnMin= 7 EnMin= -187.514942994467     IErMin= 7 ErrMin= 3.61D-06
 ErrMax= 3.61D-06 EMaxC= 1.00D-01 BMatC= 2.26D-10 BMatP= 6.36D-08
 IDIUse=1 WtCom= 1.00D+00 WtEn= 0.00D+00
 Coeff-Com:  0.146D-03-0.129D-02-0.575D-02 0.853D-02 0.731D-01-0.298D+00
 Coeff-Com:  0.122D+01
 Coeff:      0.146D-03-0.129D-02-0.575D-02 0.853D-02 0.731D-01-0.298D+00
 Coeff:      0.122D+01
 Gap=     0.720 Goal=   None    Shift=    0.000
 RMSDP=1.46D-06 MaxDP=8.61D-06 DE=-1.17D-07 OVMax= 4.16D-06

 Cycle   8  Pass 1  IDiag  1:
 E= -187.514942994808     Delta-E=       -0.000000000341 Rises=F Damp=F
 DIIS: error= 2.33D-07 at cycle   8 NSaved=   8.
 NSaved= 8 IEnMin= 8 EnMin= -187.514942994808     IErMin= 8 ErrMin= 2.33D-07
 ErrMax= 2.33D-07 EMaxC= 1.00D-01 BMatC= 1.84D-12 BMatP= 2.26D-10
 IDIUse=1 WtCom= 1.00D+00 WtEn= 0.00D+00
 Coeff-Com: -0.848D-05 0.791D-04 0.336D-03-0.810D-03-0.377D-02 0.183D-01
 Coeff-Com: -0.133D+00 0.112D+01
 Coeff:     -0.848D-05 0.791D-04 0.336D-03-0.810D-03-0.377D-02 0.183D-01
 Coeff:     -0.133D+00 0.112D+01
 Gap=     0.720 Goal=   None    Shift=    0.000
 RMSDP=1.15D-07 MaxDP=6.63D-07 DE=-3.41D-10 OVMax= 4.69D-07

 Cycle   9  Pass 1  IDiag  1:
 E= -187.514942994811     Delta-E=       -0.000000000003 Rises=F Damp=F
 DIIS: error= 2.47D-08 at cycle   9 NSaved=   9.
 NSaved= 9 IEnMin= 9 EnMin= -187.514942994811     IErMin= 9 ErrMin= 2.47D-08
 ErrMax= 2.47D-08 EMaxC= 1.00D-01 BMatC= 1.59D-14 BMatP= 1.84D-12
 IDIUse=1 WtCom= 1.00D+00 WtEn= 0.00D+00
 Coeff-Com:  0.101D-05-0.989D-05-0.408D-04 0.120D-03 0.425D-03-0.223D-02
 Coeff-Com:  0.166D-01-0.193D+00 0.118D+01
 Coeff:      0.101D-05-0.989D-05-0.408D-04 0.120D-03 0.425D-03-0.223D-02
 Coeff:      0.166D-01-0.193D+00 0.118D+01
 Gap=     0.720 Goal=   None    Shift=    0.000
 RMSDP=1.08D-08 MaxDP=5.91D-08 DE=-2.64D-12 OVMax= 4.30D-08

 Cycle  10  Pass 1  IDiag  1:
 E= -187.514942994811     Delta-E=        0.000000000000 Rises=F Damp=F
 DIIS: error= 1.69D-09 at cycle  10 NSaved=  10.
 NSaved=10 IEnMin= 9 EnMin= -187.514942994811     IErMin=10 ErrMin= 1.69D-09
 ErrMax= 1.69D-09 EMaxC= 1.00D-01 BMatC= 1.38D-16 BMatP= 1.59D-14
 IDIUse=1 WtCom= 1.00D+00 WtEn= 0.00D+00
 Coeff-Com: -0.283D-07 0.322D-06 0.112D-05-0.679D-05-0.880D-05 0.634D-04
 Coeff-Com: -0.423D-03 0.115D-01-0.140D+00 0.113D+01
 Coeff:     -0.283D-07 0.322D-06 0.112D-05-0.679D-05-0.880D-05 0.634D-04
 Coeff:     -0.423D-03 0.115D-01-0.140D+00 0.113D+01
 Gap=     0.720 Goal=   None    Shift=    0.000
 RMSDP=1.02D-09 MaxDP=7.29D-09 DE= 5.68D-14 OVMax= 5.66D-09

 SCF Done:  E(RHF) =  -187.514942995     A.U. after   10 cycles
             Convg  =    0.1016D-08             -V/T =  2.0008
 KE= 1.873645100288D+02 PE=-5.591694821545D+02 EE= 1.258721055988D+02
 Leave Link  502 at Wed May 26 14:36:42 2021, MaxMem=   33554432 cpu:       0.1
 (Enter /home/emil/gauss09/g09/l601.exe)
 Copying SCF densities to generalized density rwf, IOpCl= 0 IROHF=0.

 **********************************************************************

            Population analysis using the SCF density.

 **********************************************************************

 Orbital symmetries:
       Occupied  (SGU) (SGG) (SGG) (SGG) (SGU) (SGG) (SGU) (PIU)
                 (PIU) (PIG) (PIG)
       Virtual   (PIU) (PIU) (SGG) (SGU) (PIU) (PIU) (SGG) (SGU)
                 (SGG) (PIG) (PIG) (PIU) (PIU) (SGU) (SGG) (SGU)
 The electronic state is 1-SGG.
 Alpha  occ. eigenvalues --  -20.68015 -20.68006 -11.50551  -1.56858  -1.51834
 Alpha  occ. eigenvalues --   -0.79538  -0.73820  -0.73446  -0.73446  -0.53762
 Alpha  occ. eigenvalues --   -0.53762
 Alpha virt. eigenvalues --    0.18202   0.18202   0.23721   0.51488   0.65274
 Alpha virt. eigenvalues --    0.65274   0.86116   0.98344   1.12068   1.16169
 Alpha virt. eigenvalues --    1.16169   1.32786   1.32786   1.41405   1.92453
 Alpha virt. eigenvalues --    2.23197
          Condensed to atoms (all electrons):
              1          2          3
     1  C    4.192358   0.473206   0.473206
     2  O    0.473206   7.978513  -0.021104
     3  O    0.473206  -0.021104   7.978513
 Mulliken atomic charges:
              1
     1  C    0.861230
     2  O   -0.430615
     3  O   -0.430615
 Sum of Mulliken atomic charges =   0.00000
 Mulliken charges with hydrogens summed into heavy atoms:
              1
     1  C    0.861230
     2  O   -0.430615
     3  O   -0.430615
 Sum of Mulliken charges with hydrogens summed into heavy atoms =   0.00000
 Electronic spatial extent (au):  <R**2>=            115.0854
 Charge=              0.0000 electrons
 Dipole moment (field-independent basis, Debye):
    X=              0.0000    Y=              0.0000    Z=              0.0000  Tot=              0.0000
 Quadrupole moment (field-independent basis, Debye-Ang):
   XX=            -14.7234   YY=            -14.7234   ZZ=            -22.0277
   XY=              0.0000   XZ=              0.0000   YZ=              0.0000
 Traceless Quadrupole moment (field-independent basis, Debye-Ang):
   XX=              2.4348   YY=              2.4348   ZZ=             -4.8695
   XY=              0.0000   XZ=              0.0000   YZ=              0.0000
 Octapole moment (field-independent basis, Debye-Ang**2):
  XXX=              0.0000  YYY=              0.0000  ZZZ=              0.0000  XYY=              0.0000
  XXY=              0.0000  XXZ=              0.0000  XZZ=              0.0000  YZZ=              0.0000
  YYZ=              0.0000  XYZ=              0.0000
 Hexadecapole moment (field-independent basis, Debye-Ang**3):
 XXXX=            -10.7099 YYYY=            -10.7099 ZZZZ=           -108.3918 XXXY=              0.0000
 XXXZ=              0.0000 YYYX=              0.0000 YYYZ=              0.0000 ZZZX=              0.0000
 ZZZY=              0.0000 XXYY=             -3.5700 XXZZ=            -18.9100 YYZZ=            -18.9100
 XXYZ=              0.0000 YYXZ=              0.0000 ZZXY=              0.0000
 N-N= 5.841792353216D+01 E-N=-5.591694821395D+02  KE= 1.873645100288D+02
 Symmetry AG   KE= 1.013543634603D+02
 Symmetry B1G  KE= 0.000000000000D+00
 Symmetry B2G  KE= 4.727792643114D+00
 Symmetry B3G  KE= 4.727792643114D+00
 Symmetry AU   KE= 0.000000000000D+00
 Symmetry B1U  KE= 6.924643790708D+01
 Symmetry B2U  KE= 3.654061687598D+00
 Symmetry B3U  KE= 3.654061687598D+00
 No NMR shielding tensors so no spin-rotation constants.
 Leave Link  601 at Wed May 26 14:36:42 2021, MaxMem=   33554432 cpu:       0.1
 (Enter /home/emil/gauss09/g09/l9999.exe)
 1\1\GINC-KONG-SRV\SP\RHF\6-31G\C1O2\EMIL\26-May-2021\0\\#P HF/6-31G\\C
 O2\\0,1\C\O,1,1.1594846\X,1,1.,2,90.\O,1,1.1594846,3,90.,2,180.,0\\Ver
 sion=EM64L-G09RevB.01\State=1-SGG\HF=-187.514943\RMSD=1.016e-09\Dipole
 =0.,0.,0.\Quadrupole=1.8101944,1.8101944,-3.6203888,0.,0.,0.\PG=D*H [O
 (C1),C*(O1.O1)]\\@


 OPTIMIST - A PESSIMIST WHO LACKS EXPERIENCE
 Job cpu time:  0 days  0 hours  0 minutes  0.9 seconds.
 File lengths (MBytes):  RWF=      5 Int=      0 D2E=      0 Chk=      1 Scr=      1
 Normal termination of Gaussian 09 at Wed May 26 14:36:42 2021.
