 Entering Gaussian System, Link 0=g09
 Input=H2O.com
 Output=H2O.log
 Initial command:
 /home/emil/gauss09/g09/l1.exe /home/emil/scratch/g09/Gau-10036.inp -scrdir=/home/emil/scratch/g09/
 Entering Link 1 = /home/emil/gauss09/g09/l1.exe PID=     10038.
  
 Copyright (c) 1988,1990,1992,1993,1995,1998,2003,2009,2010,
            Gaussian, Inc.  All Rights Reserved.
  
 This is part of the Gaussian(R) 09 program.  It is based on
 the Gaussian(R) 03 system (copyright 2003, Gaussian, Inc.),
 the Gaussian(R) 98 system (copyright 1998, Gaussian, Inc.),
 the Gaussian(R) 94 system (copyright 1995, Gaussian, Inc.),
 the Gaussian 92(TM) system (copyright 1992, Gaussian, Inc.),
 the Gaussian 90(TM) system (copyright 1990, Gaussian, Inc.),
 the Gaussian 88(TM) system (copyright 1988, Gaussian, Inc.),
 the Gaussian 86(TM) system (copyright 1986, Carnegie Mellon
 University), and the Gaussian 82(TM) system (copyright 1983,
 Carnegie Mellon University). Gaussian is a federally registered
 trademark of Gaussian, Inc.
  
 This software contains proprietary and confidential information,
 including trade secrets, belonging to Gaussian, Inc.
  
 This software is provided under written license and may be
 used, copied, transmitted, or stored only in accord with that
 written license.
  
 The following legend is applicable only to US Government
 contracts under FAR:
  
                    RESTRICTED RIGHTS LEGEND
  
 Use, reproduction and disclosure by the US Government is
 subject to restrictions as set forth in subparagraphs (a)
 and (c) of the Commercial Computer Software - Restricted
 Rights clause in FAR 52.227-19.
  
 Gaussian, Inc.
 340 Quinnipiac St., Bldg. 40, Wallingford CT 06492
  
  
 ---------------------------------------------------------------
 Warning -- This program may not be used in any manner that
 competes with the business of Gaussian, Inc. or will provide
 assistance to any competitor of Gaussian, Inc.  The licensee
 of this program is prohibited from giving any competitor of
 Gaussian, Inc. access to this program.  By using this program,
 the user acknowledges that Gaussian, Inc. is engaged in the
 business of creating and licensing software in the field of
 computational chemistry and represents and warrants to the
 licensee that it is not a competitor of Gaussian, Inc. and that
 it will not use this program in any manner prohibited above.
 ---------------------------------------------------------------
  

 Cite this work as:
 Gaussian 09, Revision B.01,
 M. J. Frisch, G. W. Trucks, H. B. Schlegel, G. E. Scuseria, 
 M. A. Robb, J. R. Cheeseman, G. Scalmani, V. Barone, B. Mennucci, 
 G. A. Petersson, H. Nakatsuji, M. Caricato, X. Li, H. P. Hratchian, 
 A. F. Izmaylov, J. Bloino, G. Zheng, J. L. Sonnenberg, M. Hada, 
 M. Ehara, K. Toyota, R. Fukuda, J. Hasegawa, M. Ishida, T. Nakajima, 
 Y. Honda, O. Kitao, H. Nakai, T. Vreven, J. A. Montgomery, Jr., 
 J. E. Peralta, F. Ogliaro, M. Bearpark, J. J. Heyd, E. Brothers, 
 K. N. Kudin, V. N. Staroverov, T. Keith, R. Kobayashi, J. Normand, 
 K. Raghavachari, A. Rendell, J. C. Burant, S. S. Iyengar, J. Tomasi, 
 M. Cossi, N. Rega, J. M. Millam, M. Klene, J. E. Knox, J. B. Cross, 
 V. Bakken, C. Adamo, J. Jaramillo, R. Gomperts, R. E. Stratmann, 
 O. Yazyev, A. J. Austin, R. Cammi, C. Pomelli, J. W. Ochterski, 
 R. L. Martin, K. Morokuma, V. G. Zakrzewski, G. A. Voth, 
 P. Salvador, J. J. Dannenberg, S. Dapprich, A. D. Daniels, 
 O. Farkas, J. B. Foresman, J. V. Ortiz, J. Cioslowski, 
 and D. J. Fox, Gaussian, Inc., Wallingford CT, 2010.
 
 ******************************************
 Gaussian 09:  EM64L-G09RevB.01 12-Aug-2010
                26-May-2021 
 ******************************************
 -----------
 #P HF/6-31G
 -----------
 1/38=1/1;
 2/12=2,17=6,18=5,40=1/2;
 3/5=1,6=6,11=9,16=1,25=1,30=1/1,2,3;
 4//1;
 5/5=2,38=5/2;
 6/7=2,8=2,9=2,10=2,28=1/1;
 99/5=1,9=1/99;
 Leave Link    1 at Wed May 26 14:39:43 2021, MaxMem=          0 cpu:       0.0
 (Enter /home/emil/gauss09/g09/l101.exe)
 ---
 H2O
 ---
 Symbolic Z-matrix:
 Charge =  0 Multiplicity = 1
 O
 H                    1    OH
 H                    1    OH       2    HOH
       Variables:
  OH                    0.95691                  
  HOH                 104.51706                  
 
 NAtoms=      3 NQM=      3 NQMF=      0 NMic=      0 NMicF=      0 NTot=      3.
                    Isotopes and Nuclear Properties:
 (Nuclear quadrupole moments (NQMom) in fm**2, nuclear magnetic moments (NMagM)
  in nuclear magnetons)

  Atom         1           2           3
 IAtWgt=          16           1           1
 AtmWgt=  15.9949146   1.0078250   1.0078250
 NucSpn=           0           1           1
 AtZEff=   0.0000000   0.0000000   0.0000000
 NQMom=    0.0000000   0.0000000   0.0000000
 NMagM=    0.0000000   2.7928460   2.7928460
 Leave Link  101 at Wed May 26 14:39:43 2021, MaxMem=   33554432 cpu:       0.1
 (Enter /home/emil/gauss09/g09/l202.exe)
                          Input orientation:                          
 ---------------------------------------------------------------------
 Center     Atomic      Atomic             Coordinates (Angstroms)
 Number     Number       Type             X           Y           Z
 ---------------------------------------------------------------------
      1          8           0        0.000000    0.000000    0.000000
      2          1           0        0.000000    0.000000    0.956914
      3          1           0        0.926363    0.000000   -0.239868
 ---------------------------------------------------------------------
                    Distance matrix (angstroms):
                    1          2          3
     1  O    0.000000
     2  H    0.956914   0.000000
     3  H    0.956914   1.513419   0.000000
 Stoichiometry    H2O
 Framework group  C2V[C2(O),SGV(H2)]
 Deg. of freedom     2
 Full point group                 C2V     NOp   4
 Largest Abelian subgroup         C2V     NOp   4
 Largest concise Abelian subgroup C2      NOp   2
                         Standard orientation:                         
 ---------------------------------------------------------------------
 Center     Atomic      Atomic             Coordinates (Angstroms)
 Number     Number       Type             X           Y           Z
 ---------------------------------------------------------------------
      1          8           0        0.000000    0.000000    0.117145
      2          1           0        0.000000    0.756709   -0.468582
      3          1           0        0.000000   -0.756709   -0.468582
 ---------------------------------------------------------------------
 Rotational constants (GHZ):    822.9190993    437.8685300    285.7978362
 Leave Link  202 at Wed May 26 14:39:43 2021, MaxMem=   33554432 cpu:       0.0
 (Enter /home/emil/gauss09/g09/l301.exe)
 Standard basis: 6-31G (6D, 7F)
 Ernie: Thresh=  0.10000D-02 Tol=  0.10000D-05 Strict=F.
 There are     7 symmetry adapted basis functions of A1  symmetry.
 There are     0 symmetry adapted basis functions of A2  symmetry.
 There are     2 symmetry adapted basis functions of B1  symmetry.
 There are     4 symmetry adapted basis functions of B2  symmetry.
 Integral buffers will be    131072 words long.
 Raffenetti 1 integral format.
 Two-electron integral symmetry is turned on.
    13 basis functions,    30 primitive gaussians,    13 cartesian basis functions
     5 alpha electrons        5 beta electrons
       nuclear repulsion energy         9.1977159837 Hartrees.
 IExCor=    0 DFT=F Ex=HF Corr=None ExCW=0 ScaHFX=  1.000000
 ScaDFX=  1.000000  1.000000  1.000000  1.000000 ScalE2=  1.000000  1.000000
 IRadAn=      0 IRanWt=     -1 IRanGd=            0 ICorTp=0
 NAtoms=    3 NActive=    3 NUniq=    2 SFac= 2.25D+00 NAtFMM=   50 NAOKFM=F Big=F
 Leave Link  301 at Wed May 26 14:39:43 2021, MaxMem=   33554432 cpu:       0.0
 (Enter /home/emil/gauss09/g09/l302.exe)
 NPDir=0 NMtPBC=     1 NCelOv=     1 NCel=       1 NClECP=     1 NCelD=      1
         NCelK=      1 NCelE2=     1 NClLst=     1 CellRange=     0.0.
 One-electron integrals computed using PRISM.
 One-electron integral symmetry used in STVInt
 NBasis=    13 RedAO= T  NBF=     7     0     2     4
 NBsUse=    13 1.00D-06 NBFU=     7     0     2     4
 Leave Link  302 at Wed May 26 14:39:43 2021, MaxMem=   33554432 cpu:       0.1
 (Enter /home/emil/gauss09/g09/l303.exe)
 DipDrv:  MaxL=1.
 Leave Link  303 at Wed May 26 14:39:43 2021, MaxMem=   33554432 cpu:       0.0
 (Enter /home/emil/gauss09/g09/l401.exe)
 Harris functional with IExCor=  205 diagonalized for initial guess.
 ExpMin= 1.61D-01 ExpMax= 5.48D+03 ExpMxC= 8.25D+02 IAcc=1 IRadAn=         1 AccDes= 0.00D+00
 HarFok:  IExCor=  205 AccDes= 0.00D+00 IRadAn=         1 IDoV= 1
 ScaDFX=  1.000000  1.000000  1.000000  1.000000
 FoFCou: FMM=F IPFlag=           0 FMFlag=      100000 FMFlg1=           0
         NFxFlg=           0 DoJE=T BraDBF=F KetDBF=T FulRan=T
         Omega=  0.000000  0.000000  1.000000  0.000000  0.000000 ICntrl=     500 IOpCl=  0
         NMat0=    1 NMatS0=    1 NMatT0=    0 NMatD0=    1 NMtDS0=    0 NMtDT0=    0
         I1Cent=           4 NGrid=           0.
 Petite list used in FoFCou.
 Harris En= -76.0825717887086    
 Initial guess orbital symmetries:
       Occupied  (A1) (A1) (B2) (A1) (B1)
       Virtual   (A1) (B2) (B1) (A1) (B2) (A1) (B2) (A1)
 The electronic state of the initial guess is 1-A1.
 Leave Link  401 at Wed May 26 14:39:43 2021, MaxMem=   33554432 cpu:       0.3
 (Enter /home/emil/gauss09/g09/l502.exe)
 Closed shell SCF:
 Requested convergence on RMS density matrix=1.00D-08 within 128 cycles.
 Requested convergence on MAX density matrix=1.00D-06.
 Requested convergence on             energy=1.00D-06.
 No special actions if energy rises.
 Using DIIS extrapolation, IDIIS=  1040.
 Integral symmetry usage will be decided dynamically.
 Keep R1 ints in memory in canonical form, NReq=823981.
 IEnd=       19781 IEndB=       19781 NGot=    33554432 MDV=    33547540
 LenX=    33547540 LenY=    33546658
 Symmetry not used in FoFDir.
 MinBra= 0 MaxBra= 1 Meth= 1.
 IRaf=       0 NMat=   1 IRICut=       1 DoRegI=T DoRafI=F ISym2E= 0 JSym2E=0.

 Cycle   1  Pass 1  IDiag  1:
 E= -75.9068839324852    
 DIIS: error= 9.08D-02 at cycle   1 NSaved=   1.
 NSaved= 1 IEnMin= 1 EnMin= -75.9068839324852     IErMin= 1 ErrMin= 9.08D-02
 ErrMax= 9.08D-02 EMaxC= 1.00D-01 BMatC= 1.07D-01 BMatP= 1.07D-01
 IDIUse=3 WtCom= 9.16D-02 WtEn= 9.08D-01
 Coeff-Com:  0.100D+01
 Coeff-En:   0.100D+01
 Coeff:      0.100D+01
 Gap=     0.584 Goal=   None    Shift=    0.000
 GapD=    0.584 DampG=2.000 DampE=0.500 DampFc=1.0000 IDamp=-1.
 RMSDP=2.22D-02 MaxDP=1.18D-01              OVMax= 1.16D-01

 Cycle   2  Pass 1  IDiag  1:
 E= -75.9586676172773     Delta-E=       -0.051783684792 Rises=F Damp=F
 DIIS: error= 5.07D-02 at cycle   2 NSaved=   2.
 NSaved= 2 IEnMin= 2 EnMin= -75.9586676172773     IErMin= 2 ErrMin= 5.07D-02
 ErrMax= 5.07D-02 EMaxC= 1.00D-01 BMatC= 3.67D-02 BMatP= 1.07D-01
 IDIUse=3 WtCom= 4.93D-01 WtEn= 5.07D-01
 Coeff-Com:  0.360D+00 0.640D+00
 Coeff-En:   0.104D+00 0.896D+00
 Coeff:      0.230D+00 0.770D+00
 Gap=     0.723 Goal=   None    Shift=    0.000
 RMSDP=1.08D-02 MaxDP=5.68D-02 DE=-5.18D-02 OVMax= 3.67D-02

 Cycle   3  Pass 1  IDiag  1:
 E= -75.9826144958416     Delta-E=       -0.023946878564 Rises=F Damp=F
 DIIS: error= 1.25D-02 at cycle   3 NSaved=   3.
 NSaved= 3 IEnMin= 3 EnMin= -75.9826144958416     IErMin= 3 ErrMin= 1.25D-02
 ErrMax= 1.25D-02 EMaxC= 1.00D-01 BMatC= 1.77D-03 BMatP= 3.67D-02
 IDIUse=3 WtCom= 8.75D-01 WtEn= 1.25D-01
 Coeff-Com: -0.353D-01 0.140D+00 0.895D+00
 Coeff-En:   0.000D+00 0.000D+00 0.100D+01
 Coeff:     -0.309D-01 0.122D+00 0.908D+00
 Gap=     0.701 Goal=   None    Shift=    0.000
 RMSDP=2.07D-03 MaxDP=1.14D-02 DE=-2.39D-02 OVMax= 1.09D-02

 Cycle   4  Pass 1  IDiag  1:
 E= -75.9839785296205     Delta-E=       -0.001364033779 Rises=F Damp=F
 DIIS: error= 1.58D-03 at cycle   4 NSaved=   4.
 NSaved= 4 IEnMin= 4 EnMin= -75.9839785296205     IErMin= 4 ErrMin= 1.58D-03
 ErrMax= 1.58D-03 EMaxC= 1.00D-01 BMatC= 2.07D-05 BMatP= 1.77D-03
 IDIUse=3 WtCom= 9.84D-01 WtEn= 1.58D-02
 Coeff-Com:  0.851D-02-0.761D-01-0.283D+00 0.135D+01
 Coeff-En:   0.000D+00 0.000D+00 0.000D+00 0.100D+01
 Coeff:      0.838D-02-0.749D-01-0.278D+00 0.134D+01
 Gap=     0.705 Goal=   None    Shift=    0.000
 RMSDP=3.29D-04 MaxDP=2.24D-03 DE=-1.36D-03 OVMax= 1.12D-03

 Cycle   5  Pass 1  IDiag  1:
 E= -75.9839993555925     Delta-E=       -0.000020825972 Rises=F Damp=F
 DIIS: error= 1.34D-04 at cycle   5 NSaved=   5.
 NSaved= 5 IEnMin= 5 EnMin= -75.9839993555925     IErMin= 5 ErrMin= 1.34D-04
 ErrMax= 1.34D-04 EMaxC= 1.00D-01 BMatC= 1.18D-07 BMatP= 2.07D-05
 IDIUse=3 WtCom= 9.99D-01 WtEn= 1.34D-03
 Coeff-Com: -0.200D-02 0.224D-01 0.755D-01-0.475D+00 0.138D+01
 Coeff-En:   0.000D+00 0.000D+00 0.000D+00 0.000D+00 0.100D+01
 Coeff:     -0.200D-02 0.224D-01 0.754D-01-0.474D+00 0.138D+01
 Gap=     0.705 Goal=   None    Shift=    0.000
 RMSDP=6.24D-05 MaxDP=2.99D-04 DE=-2.08D-05 OVMax= 3.48D-04

 Cycle   6  Pass 1  IDiag  1:
 E= -75.9839996572253     Delta-E=       -0.000000301633 Rises=F Damp=F
 DIIS: error= 1.67D-05 at cycle   6 NSaved=   6.
 NSaved= 6 IEnMin= 6 EnMin= -75.9839996572253     IErMin= 6 ErrMin= 1.67D-05
 ErrMax= 1.67D-05 EMaxC= 1.00D-01 BMatC= 2.15D-09 BMatP= 1.18D-07
 IDIUse=1 WtCom= 1.00D+00 WtEn= 0.00D+00
 Coeff-Com:  0.658D-03-0.786D-02-0.259D-01 0.176D+00-0.572D+00 0.143D+01
 Coeff:      0.658D-03-0.786D-02-0.259D-01 0.176D+00-0.572D+00 0.143D+01
 Gap=     0.705 Goal=   None    Shift=    0.000
 RMSDP=7.98D-06 MaxDP=3.83D-05 DE=-3.02D-07 OVMax= 4.59D-05

 Cycle   7  Pass 1  IDiag  1:
 E= -75.9839996630210     Delta-E=       -0.000000005796 Rises=F Damp=F
 DIIS: error= 3.11D-06 at cycle   7 NSaved=   7.
 NSaved= 7 IEnMin= 7 EnMin= -75.9839996630210     IErMin= 7 ErrMin= 3.11D-06
 ErrMax= 3.11D-06 EMaxC= 1.00D-01 BMatC= 1.09D-10 BMatP= 2.15D-09
 IDIUse=1 WtCom= 1.00D+00 WtEn= 0.00D+00
 Coeff-Com: -0.820D-04 0.117D-02 0.365D-02-0.300D-01 0.113D+00-0.451D+00
 Coeff-Com:  0.136D+01
 Coeff:     -0.820D-04 0.117D-02 0.365D-02-0.300D-01 0.113D+00-0.451D+00
 Coeff:      0.136D+01
 Gap=     0.705 Goal=   None    Shift=    0.000
 RMSDP=1.55D-06 MaxDP=7.52D-06 DE=-5.80D-09 OVMax= 1.02D-05

 Cycle   8  Pass 1  IDiag  1:
 E= -75.9839996632823     Delta-E=       -0.000000000261 Rises=F Damp=F
 DIIS: error= 3.63D-07 at cycle   8 NSaved=   8.
 NSaved= 8 IEnMin= 8 EnMin= -75.9839996632823     IErMin= 8 ErrMin= 3.63D-07
 ErrMax= 3.63D-07 EMaxC= 1.00D-01 BMatC= 1.65D-12 BMatP= 1.09D-10
 IDIUse=1 WtCom= 1.00D+00 WtEn= 0.00D+00
 Coeff-Com: -0.692D-05 0.166D-04 0.129D-03 0.752D-03-0.666D-02 0.568D-01
 Coeff-Com: -0.302D+00 0.125D+01
 Coeff:     -0.692D-05 0.166D-04 0.129D-03 0.752D-03-0.666D-02 0.568D-01
 Coeff:     -0.302D+00 0.125D+01
 Gap=     0.705 Goal=   None    Shift=    0.000
 RMSDP=2.12D-07 MaxDP=8.19D-07 DE=-2.61D-10 OVMax= 1.28D-06

 Cycle   9  Pass 1  IDiag  1:
 E= -75.9839996632864     Delta-E=       -0.000000000004 Rises=F Damp=F
 DIIS: error= 6.29D-08 at cycle   9 NSaved=   9.
 NSaved= 9 IEnMin= 9 EnMin= -75.9839996632864     IErMin= 9 ErrMin= 6.29D-08
 ErrMax= 6.29D-08 EMaxC= 1.00D-01 BMatC= 2.87D-14 BMatP= 1.65D-12
 IDIUse=1 WtCom= 1.00D+00 WtEn= 0.00D+00
 Coeff-Com:  0.128D-05 0.415D-06-0.152D-04-0.277D-03 0.178D-02-0.130D-01
 Coeff-Com:  0.666D-01-0.353D+00 0.130D+01
 Coeff:      0.128D-05 0.415D-06-0.152D-04-0.277D-03 0.178D-02-0.130D-01
 Coeff:      0.666D-01-0.353D+00 0.130D+01
 Gap=     0.705 Goal=   None    Shift=    0.000
 RMSDP=3.66D-08 MaxDP=1.23D-07 DE=-4.11D-12 OVMax= 2.33D-07

 Cycle  10  Pass 1  IDiag  1:
 E= -75.9839996632865     Delta-E=        0.000000000000 Rises=F Damp=F
 DIIS: error= 3.54D-09 at cycle  10 NSaved=  10.
 NSaved=10 IEnMin=10 EnMin= -75.9839996632865     IErMin=10 ErrMin= 3.54D-09
 ErrMax= 3.54D-09 EMaxC= 1.00D-01 BMatC= 1.24D-16 BMatP= 2.87D-14
 IDIUse=1 WtCom= 1.00D+00 WtEn= 0.00D+00
 Coeff-Com: -0.169D-06 0.368D-06 0.294D-05 0.191D-04-0.148D-03 0.116D-02
 Coeff-Com: -0.669D-02 0.399D-01-0.198D+00 0.116D+01
 Coeff:     -0.169D-06 0.368D-06 0.294D-05 0.191D-04-0.148D-03 0.116D-02
 Coeff:     -0.669D-02 0.399D-01-0.198D+00 0.116D+01
 Gap=     0.705 Goal=   None    Shift=    0.000
 RMSDP=2.93D-09 MaxDP=1.02D-08 DE=-8.53D-14 OVMax= 1.71D-08

 SCF Done:  E(RHF) =  -75.9839996633     A.U. after   10 cycles
             Convg  =    0.2928D-08             -V/T =  1.9998
 KE= 7.599773192521D+01 PE=-1.989825025684D+02 EE= 3.780305499625D+01
 Leave Link  502 at Wed May 26 14:39:44 2021, MaxMem=   33554432 cpu:       0.1
 (Enter /home/emil/gauss09/g09/l601.exe)
 Copying SCF densities to generalized density rwf, IOpCl= 0 IROHF=0.

 **********************************************************************

            Population analysis using the SCF density.

 **********************************************************************

 Orbital symmetries:
       Occupied  (A1) (A1) (B2) (A1) (B1)
       Virtual   (A1) (B2) (B2) (B1) (A1) (A1) (B2) (A1)
 The electronic state is 1-A1.
 Alpha  occ. eigenvalues --  -20.56032  -1.35655  -0.71039  -0.56067  -0.50140
 Alpha virt. eigenvalues --    0.20385   0.29997   1.05778   1.16446   1.18789
 Alpha virt. eigenvalues --    1.21554   1.37968   1.69609
          Condensed to atoms (all electrons):
              1          2          3
     1  O    8.271557   0.260085   0.260085
     2  H    0.260085   0.376080  -0.032029
     3  H    0.260085  -0.032029   0.376080
 Mulliken atomic charges:
              1
     1  O   -0.791727
     2  H    0.395864
     3  H    0.395864
 Sum of Mulliken atomic charges =   0.00000
 Mulliken charges with hydrogens summed into heavy atoms:
              1
     1  O    0.000000
 Sum of Mulliken charges with hydrogens summed into heavy atoms =   0.00000
 Electronic spatial extent (au):  <R**2>=             19.1040
 Charge=              0.0000 electrons
 Dipole moment (field-independent basis, Debye):
    X=              0.0000    Y=              0.0000    Z=             -2.6300  Tot=              2.6300
 Quadrupole moment (field-independent basis, Debye-Ang):
   XX=             -7.2050   YY=             -4.2102   ZZ=             -6.1430
   XY=              0.0000   XZ=              0.0000   YZ=              0.0000
 Traceless Quadrupole moment (field-independent basis, Debye-Ang):
   XX=             -1.3523   YY=              1.6425   ZZ=             -0.2903
   XY=              0.0000   XZ=              0.0000   YZ=              0.0000
 Octapole moment (field-independent basis, Debye-Ang**2):
  XXX=              0.0000  YYY=              0.0000  ZZZ=             -1.6045  XYY=              0.0000
  XXY=              0.0000  XXZ=             -0.4468  XZZ=              0.0000  YZZ=              0.0000
  YYZ=             -1.3063  XYZ=              0.0000
 Hexadecapole moment (field-independent basis, Debye-Ang**3):
 XXXX=             -5.1776 YYYY=             -5.6235 ZZZZ=             -6.1840 XXXY=              0.0000
 XXXZ=              0.0000 YYYX=              0.0000 YYYZ=              0.0000 ZZZX=              0.0000
 ZZZY=              0.0000 XXYY=             -2.0326 XXZZ=             -1.9413 YYZZ=             -1.6620
 XXYZ=              0.0000 YYXZ=              0.0000 ZZXY=              0.0000
 N-N= 9.197715983665D+00 E-N=-1.989825025779D+02  KE= 7.599773192521D+01
 Symmetry A1   KE= 6.792443856521D+01
 Symmetry A2   KE= 0.000000000000D+00
 Symmetry B1   KE= 4.569617089306D+00
 Symmetry B2   KE= 3.503676270696D+00
 No NMR shielding tensors so no spin-rotation constants.
 Leave Link  601 at Wed May 26 14:39:44 2021, MaxMem=   33554432 cpu:       0.1
 (Enter /home/emil/gauss09/g09/l9999.exe)
 1\1\GINC-KONG-SRV\SP\RHF\6-31G\H2O1\EMIL\26-May-2021\0\\#P HF/6-31G\\H
 2O\\0,1\O\H,1,0.95691441\H,1,0.95691441,2,104.51706026\\Version=EM64L-
 G09RevB.01\State=1-A1\HF=-75.9839997\RMSD=2.928e-09\Dipole=0.8182505,0
 .,0.6333624\Quadrupole=0.3225858,-1.0053779,0.6827922,0.,-0.6955529,0.
 \PG=C02V [C2(O1),SGV(H2)]\\@


 The number of Unix installations has grown to 10,
  with more expected.
                  -- The Unix Programmer's Manual,
                     2nd Edition, June, 1972.
 Job cpu time:  0 days  0 hours  0 minutes  0.9 seconds.
 File lengths (MBytes):  RWF=      5 Int=      0 D2E=      0 Chk=      1 Scr=      1
 Normal termination of Gaussian 09 at Wed May 26 14:39:44 2021.
