 Entering Gaussian System, Link 0=g09
 Input=HCO.com
 Output=HCO.log
 Initial command:
 /home/emil/gauss09/g09/l1.exe /home/emil/scratch/g09/Gau-10054.inp -scrdir=/home/emil/scratch/g09/
 Entering Link 1 = /home/emil/gauss09/g09/l1.exe PID=     10056.
  
 Copyright (c) 1988,1990,1992,1993,1995,1998,2003,2009,2010,
            Gaussian, Inc.  All Rights Reserved.
  
 This is part of the Gaussian(R) 09 program.  It is based on
 the Gaussian(R) 03 system (copyright 2003, Gaussian, Inc.),
 the Gaussian(R) 98 system (copyright 1998, Gaussian, Inc.),
 the Gaussian(R) 94 system (copyright 1995, Gaussian, Inc.),
 the Gaussian 92(TM) system (copyright 1992, Gaussian, Inc.),
 the Gaussian 90(TM) system (copyright 1990, Gaussian, Inc.),
 the Gaussian 88(TM) system (copyright 1988, Gaussian, Inc.),
 the Gaussian 86(TM) system (copyright 1986, Carnegie Mellon
 University), and the Gaussian 82(TM) system (copyright 1983,
 Carnegie Mellon University). Gaussian is a federally registered
 trademark of Gaussian, Inc.
  
 This software contains proprietary and confidential information,
 including trade secrets, belonging to Gaussian, Inc.
  
 This software is provided under written license and may be
 used, copied, transmitted, or stored only in accord with that
 written license.
  
 The following legend is applicable only to US Government
 contracts under FAR:
  
                    RESTRICTED RIGHTS LEGEND
  
 Use, reproduction and disclosure by the US Government is
 subject to restrictions as set forth in subparagraphs (a)
 and (c) of the Commercial Computer Software - Restricted
 Rights clause in FAR 52.227-19.
  
 Gaussian, Inc.
 340 Quinnipiac St., Bldg. 40, Wallingford CT 06492
  
  
 ---------------------------------------------------------------
 Warning -- This program may not be used in any manner that
 competes with the business of Gaussian, Inc. or will provide
 assistance to any competitor of Gaussian, Inc.  The licensee
 of this program is prohibited from giving any competitor of
 Gaussian, Inc. access to this program.  By using this program,
 the user acknowledges that Gaussian, Inc. is engaged in the
 business of creating and licensing software in the field of
 computational chemistry and represents and warrants to the
 licensee that it is not a competitor of Gaussian, Inc. and that
 it will not use this program in any manner prohibited above.
 ---------------------------------------------------------------
  

 Cite this work as:
 Gaussian 09, Revision B.01,
 M. J. Frisch, G. W. Trucks, H. B. Schlegel, G. E. Scuseria, 
 M. A. Robb, J. R. Cheeseman, G. Scalmani, V. Barone, B. Mennucci, 
 G. A. Petersson, H. Nakatsuji, M. Caricato, X. Li, H. P. Hratchian, 
 A. F. Izmaylov, J. Bloino, G. Zheng, J. L. Sonnenberg, M. Hada, 
 M. Ehara, K. Toyota, R. Fukuda, J. Hasegawa, M. Ishida, T. Nakajima, 
 Y. Honda, O. Kitao, H. Nakai, T. Vreven, J. A. Montgomery, Jr., 
 J. E. Peralta, F. Ogliaro, M. Bearpark, J. J. Heyd, E. Brothers, 
 K. N. Kudin, V. N. Staroverov, T. Keith, R. Kobayashi, J. Normand, 
 K. Raghavachari, A. Rendell, J. C. Burant, S. S. Iyengar, J. Tomasi, 
 M. Cossi, N. Rega, J. M. Millam, M. Klene, J. E. Knox, J. B. Cross, 
 V. Bakken, C. Adamo, J. Jaramillo, R. Gomperts, R. E. Stratmann, 
 O. Yazyev, A. J. Austin, R. Cammi, C. Pomelli, J. W. Ochterski, 
 R. L. Martin, K. Morokuma, V. G. Zakrzewski, G. A. Voth, 
 P. Salvador, J. J. Dannenberg, S. Dapprich, A. D. Daniels, 
 O. Farkas, J. B. Foresman, J. V. Ortiz, J. Cioslowski, 
 and D. J. Fox, Gaussian, Inc., Wallingford CT, 2010.
 
 ******************************************
 Gaussian 09:  EM64L-G09RevB.01 12-Aug-2010
                26-May-2021 
 ******************************************
 -----------
 #P HF/6-31G
 -----------
 1/38=1/1;
 2/12=2,17=6,18=5,40=1/2;
 3/5=1,6=6,11=9,16=1,25=1,30=1/1,2,3;
 4//1;
 5/5=2,38=5/2;
 6/7=2,8=2,9=2,10=2,28=1/1;
 99/5=1,9=1/99;
 Leave Link    1 at Wed May 26 14:44:16 2021, MaxMem=          0 cpu:       0.0
 (Enter /home/emil/gauss09/g09/l101.exe)
 ---
 HCO
 ---
 Symbolic Z-matrix:
 Charge =  0 Multiplicity = 2
 C
 O                    1    CO
 H                    1    CH       2    HCO
       Variables:
  CO                    1.17661                  
  CH                    1.11657                  
  HCO                 125.15231                  
 
 NAtoms=      3 NQM=      3 NQMF=      0 NMic=      0 NMicF=      0 NTot=      3.
                    Isotopes and Nuclear Properties:
 (Nuclear quadrupole moments (NQMom) in fm**2, nuclear magnetic moments (NMagM)
  in nuclear magnetons)

  Atom         1           2           3
 IAtWgt=          12          16           1
 AtmWgt=  12.0000000  15.9949146   1.0078250
 NucSpn=           0           0           1
 AtZEff=   0.0000000   0.0000000   0.0000000
 NQMom=    0.0000000   0.0000000   0.0000000
 NMagM=    0.0000000   0.0000000   2.7928460
 Leave Link  101 at Wed May 26 14:44:16 2021, MaxMem=   33554432 cpu:       0.1
 (Enter /home/emil/gauss09/g09/l202.exe)
                          Input orientation:                          
 ---------------------------------------------------------------------
 Center     Atomic      Atomic             Coordinates (Angstroms)
 Number     Number       Type             X           Y           Z
 ---------------------------------------------------------------------
      1          6           0        0.000000    0.000000    0.000000
      2          8           0        0.000000    0.000000    1.176609
      3          1           0        0.912934    0.000000   -0.642866
 ---------------------------------------------------------------------
                    Distance matrix (angstroms):
                    1          2          3
     1  C    0.000000
     2  O    1.176609   0.000000
     3  H    1.116569   2.035667   0.000000
 Stoichiometry    CHO(2)
 Framework group  CS[SG(CHO)]
 Deg. of freedom     3
 Full point group                 CS      NOp   2
 Largest Abelian subgroup         CS      NOp   2
 Largest concise Abelian subgroup C1      NOp   1
                         Standard orientation:                         
 ---------------------------------------------------------------------
 Center     Atomic      Atomic             Coordinates (Angstroms)
 Number     Number       Type             X           Y           Z
 ---------------------------------------------------------------------
      1          6           0        0.060862    0.584667    0.000000
      2          8           0        0.060862   -0.591942    0.000000
      3          1           0       -0.852072    1.227534    0.000000
 ---------------------------------------------------------------------
 Rotational constants (GHZ):    742.3502664     44.7067485     42.1672967
 Leave Link  202 at Wed May 26 14:44:16 2021, MaxMem=   33554432 cpu:       0.0
 (Enter /home/emil/gauss09/g09/l301.exe)
 Standard basis: 6-31G (6D, 7F)
 Ernie: Thresh=  0.10000D-02 Tol=  0.10000D-05 Strict=F.
 There are    16 symmetry adapted basis functions of A'  symmetry.
 There are     4 symmetry adapted basis functions of A"  symmetry.
 Integral buffers will be    131072 words long.
 Raffenetti 2 integral format.
 Two-electron integral symmetry is turned on.
    20 basis functions,    48 primitive gaussians,    20 cartesian basis functions
     8 alpha electrons        7 beta electrons
       nuclear repulsion energy        26.5110958326 Hartrees.
 IExCor=    0 DFT=F Ex=HF Corr=None ExCW=0 ScaHFX=  1.000000
 ScaDFX=  1.000000  1.000000  1.000000  1.000000 ScalE2=  1.000000  1.000000
 IRadAn=      0 IRanWt=     -1 IRanGd=            0 ICorTp=0
 NAtoms=    3 NActive=    3 NUniq=    3 SFac= 1.00D+00 NAtFMM=   50 NAOKFM=F Big=F
 Leave Link  301 at Wed May 26 14:44:16 2021, MaxMem=   33554432 cpu:       0.0
 (Enter /home/emil/gauss09/g09/l302.exe)
 NPDir=0 NMtPBC=     1 NCelOv=     1 NCel=       1 NClECP=     1 NCelD=      1
         NCelK=      1 NCelE2=     1 NClLst=     1 CellRange=     0.0.
 One-electron integrals computed using PRISM.
 NBasis=    20 RedAO= T  NBF=    16     4
 NBsUse=    20 1.00D-06 NBFU=    16     4
 Leave Link  302 at Wed May 26 14:44:16 2021, MaxMem=   33554432 cpu:       0.1
 (Enter /home/emil/gauss09/g09/l303.exe)
 DipDrv:  MaxL=1.
 Leave Link  303 at Wed May 26 14:44:16 2021, MaxMem=   33554432 cpu:       0.1
 (Enter /home/emil/gauss09/g09/l401.exe)
 Harris functional with IExCor=  205 diagonalized for initial guess.
 ExpMin= 1.61D-01 ExpMax= 5.48D+03 ExpMxC= 8.25D+02 IAcc=1 IRadAn=         1 AccDes= 0.00D+00
 HarFok:  IExCor=  205 AccDes= 0.00D+00 IRadAn=         1 IDoV= 1
 ScaDFX=  1.000000  1.000000  1.000000  1.000000
 FoFCou: FMM=F IPFlag=           0 FMFlag=      100000 FMFlg1=           0
         NFxFlg=           0 DoJE=T BraDBF=F KetDBF=T FulRan=T
         Omega=  0.000000  0.000000  1.000000  0.000000  0.000000 ICntrl=     500 IOpCl=  0
         NMat0=    1 NMatS0=    1 NMatT0=    0 NMatD0=    1 NMtDS0=    0 NMtDT0=    0
         I1Cent=           4 NGrid=           0.
 Petite list used in FoFCou.
 Harris En= -113.197843268943    
 Initial guess orbital symmetries:
 Alpha Orbitals:
       Occupied  (A') (A') (A') (A') (A') (A") (A') (A')
       Virtual   (A") (A') (A') (A") (A') (A') (A') (A') (A') (A")
                 (A') (A')
 Beta  Orbitals:
       Occupied  (A') (A') (A') (A') (A') (A") (A')
       Virtual   (A') (A") (A') (A') (A") (A') (A') (A') (A') (A')
                 (A") (A') (A')
 The electronic state of the initial guess is 2-A'.
 Initial guess <Sx>= 0.0000 <Sy>= 0.0000 <Sz>= 0.5000 <S**2>= 0.7500 S= 0.5000
 Leave Link  401 at Wed May 26 14:44:16 2021, MaxMem=   33554432 cpu:       0.3
 (Enter /home/emil/gauss09/g09/l502.exe)
 UHF open shell SCF:
 Requested convergence on RMS density matrix=1.00D-08 within 128 cycles.
 Requested convergence on MAX density matrix=1.00D-06.
 Requested convergence on             energy=1.00D-06.
 No special actions if energy rises.
 Using DIIS extrapolation, IDIIS=  1040.
 Integral symmetry usage will be decided dynamically.
 Keep R1 and R2 ints in memory in canonical form, NReq=864094.
 IEnd=       19763 IEndB=       19763 NGot=    33554432 MDV=    33507434
 LenX=    33507434 LenY=    33506552
 Symmetry not used in FoFDir.
 MinBra= 0 MaxBra= 1 Meth= 1.
 IRaf=       0 NMat=   1 IRICut=       1 DoRegI=T DoRafI=F ISym2E= 0 JSym2E=0.

 Cycle   1  Pass 1  IDiag  1:
 E= -113.153867068597    
 DIIS: error= 4.01D-02 at cycle   1 NSaved=   1.
 NSaved= 1 IEnMin= 1 EnMin= -113.153867068597     IErMin= 1 ErrMin= 4.01D-02
 ErrMax= 4.01D-02 EMaxC= 1.00D-01 BMatC= 2.01D-01 BMatP= 2.01D-01
 IDIUse=3 WtCom= 5.99D-01 WtEn= 4.01D-01
 Coeff-Com:  0.100D+01
 Coeff-En:   0.100D+01
 Coeff:      0.100D+01
 Gap=     0.521 Goal=   None    Shift=    0.000
 Gap=     0.616 Goal=   None    Shift=    0.000
 GapD=    0.521 DampG=2.000 DampE=0.500 DampFc=1.0000 IDamp=-1.
 RMSDP=8.63D-03 MaxDP=6.85D-02              OVMax= 5.83D-02

 Cycle   2  Pass 1  IDiag  1:
 E= -113.176921755866     Delta-E=       -0.023054687269 Rises=F Damp=F
 DIIS: error= 2.01D-02 at cycle   2 NSaved=   2.
 NSaved= 2 IEnMin= 2 EnMin= -113.176921755866     IErMin= 2 ErrMin= 2.01D-02
 ErrMax= 2.01D-02 EMaxC= 1.00D-01 BMatC= 4.00D-02 BMatP= 2.01D-01
 IDIUse=3 WtCom= 7.99D-01 WtEn= 2.01D-01
 Coeff-Com:  0.240D+00 0.760D+00
 Coeff-En:   0.000D+00 0.100D+01
 Coeff:      0.192D+00 0.808D+00
 Gap=     0.507 Goal=   None    Shift=    0.000
 Gap=     0.629 Goal=   None    Shift=    0.000
 RMSDP=4.78D-03 MaxDP=3.49D-02 DE=-2.31D-02 OVMax= 4.69D-02

 Cycle   3  Pass 1  IDiag  1:
 E= -113.182808322763     Delta-E=       -0.005886566897 Rises=F Damp=F
 DIIS: error= 1.31D-02 at cycle   3 NSaved=   3.
 NSaved= 3 IEnMin= 3 EnMin= -113.182808322763     IErMin= 3 ErrMin= 1.31D-02
 ErrMax= 1.31D-02 EMaxC= 1.00D-01 BMatC= 1.06D-02 BMatP= 4.00D-02
 IDIUse=3 WtCom= 8.69D-01 WtEn= 1.31D-01
 Coeff-Com: -0.287D-01 0.317D+00 0.711D+00
 Coeff-En:   0.000D+00 0.749D-01 0.925D+00
 Coeff:     -0.249D-01 0.286D+00 0.739D+00
 Gap=     0.505 Goal=   None    Shift=    0.000
 Gap=     0.614 Goal=   None    Shift=    0.000
 RMSDP=1.81D-03 MaxDP=1.46D-02 DE=-5.89D-03 OVMax= 2.05D-02

 Cycle   4  Pass 1  IDiag  1:
 E= -113.184927884753     Delta-E=       -0.002119561991 Rises=F Damp=F
 DIIS: error= 3.03D-03 at cycle   4 NSaved=   4.
 NSaved= 4 IEnMin= 4 EnMin= -113.184927884753     IErMin= 4 ErrMin= 3.03D-03
 ErrMax= 3.03D-03 EMaxC= 1.00D-01 BMatC= 3.60D-04 BMatP= 1.06D-02
 IDIUse=3 WtCom= 9.70D-01 WtEn= 3.03D-02
 Coeff-Com: -0.722D-02-0.609D-01 0.267D-01 0.104D+01
 Coeff-En:   0.000D+00 0.000D+00 0.000D+00 0.100D+01
 Coeff:     -0.700D-02-0.591D-01 0.259D-01 0.104D+01
 Gap=     0.506 Goal=   None    Shift=    0.000
 Gap=     0.618 Goal=   None    Shift=    0.000
 RMSDP=6.09D-04 MaxDP=3.51D-03 DE=-2.12D-03 OVMax= 1.12D-02

 Cycle   5  Pass 1  IDiag  1:
 E= -113.185141364220     Delta-E=       -0.000213479467 Rises=F Damp=F
 DIIS: error= 1.90D-03 at cycle   5 NSaved=   5.
 NSaved= 5 IEnMin= 5 EnMin= -113.185141364220     IErMin= 5 ErrMin= 1.90D-03
 ErrMax= 1.90D-03 EMaxC= 1.00D-01 BMatC= 7.79D-05 BMatP= 3.60D-04
 IDIUse=3 WtCom= 9.81D-01 WtEn= 1.90D-02
 Coeff-Com:  0.500D-02-0.218D-01-0.113D+00-0.233D+00 0.136D+01
 Coeff-En:   0.000D+00 0.000D+00 0.000D+00 0.000D+00 0.100D+01
 Coeff:      0.491D-02-0.214D-01-0.111D+00-0.228D+00 0.136D+01
 Gap=     0.508 Goal=   None    Shift=    0.000
 Gap=     0.619 Goal=   None    Shift=    0.000
 RMSDP=5.03D-04 MaxDP=3.81D-03 DE=-2.13D-04 OVMax= 8.51D-03

 Cycle   6  Pass 1  IDiag  1:
 E= -113.185254367910     Delta-E=       -0.000113003690 Rises=F Damp=F
 DIIS: error= 1.46D-03 at cycle   6 NSaved=   6.
 NSaved= 6 IEnMin= 6 EnMin= -113.185254367910     IErMin= 6 ErrMin= 1.46D-03
 ErrMax= 1.46D-03 EMaxC= 1.00D-01 BMatC= 3.95D-05 BMatP= 7.79D-05
 IDIUse=3 WtCom= 9.85D-01 WtEn= 1.46D-02
 Coeff-Com: -0.598D-02 0.434D-01 0.165D+00 0.255D+00-0.201D+01 0.255D+01
 Coeff-En:   0.000D+00 0.000D+00 0.000D+00 0.000D+00 0.000D+00 0.100D+01
 Coeff:     -0.589D-02 0.427D-01 0.162D+00 0.251D+00-0.198D+01 0.253D+01
 Gap=     0.508 Goal=   None    Shift=    0.000
 Gap=     0.622 Goal=   None    Shift=    0.000
 RMSDP=5.65D-04 MaxDP=5.58D-03 DE=-1.13D-04 OVMax= 1.02D-02

 Cycle   7  Pass 1  IDiag  1:
 E= -113.185364309956     Delta-E=       -0.000109942046 Rises=F Damp=F
 DIIS: error= 1.22D-03 at cycle   7 NSaved=   7.
 NSaved= 7 IEnMin= 7 EnMin= -113.185364309956     IErMin= 7 ErrMin= 1.22D-03
 ErrMax= 1.22D-03 EMaxC= 1.00D-01 BMatC= 2.45D-05 BMatP= 3.95D-05
 IDIUse=3 WtCom= 9.88D-01 WtEn= 1.22D-02
 Coeff-Com:  0.771D-02-0.695D-01-0.238D+00-0.219D+00 0.295D+01-0.536D+01
 Coeff-Com:  0.393D+01
 Coeff-En:   0.000D+00 0.000D+00 0.000D+00 0.000D+00 0.000D+00 0.000D+00
 Coeff-En:   0.100D+01
 Coeff:      0.762D-02-0.686D-01-0.235D+00-0.216D+00 0.291D+01-0.529D+01
 Coeff:      0.389D+01
 Gap=     0.508 Goal=   None    Shift=    0.000
 Gap=     0.626 Goal=   None    Shift=    0.000
 RMSDP=1.02D-03 MaxDP=1.12D-02 DE=-1.10D-04 OVMax= 1.98D-02

 Cycle   8  Pass 1  IDiag  1:
 E= -113.185498808826     Delta-E=       -0.000134498871 Rises=F Damp=F
 DIIS: error= 7.85D-04 at cycle   8 NSaved=   8.
 NSaved= 8 IEnMin= 8 EnMin= -113.185498808826     IErMin= 8 ErrMin= 7.85D-04
 ErrMax= 7.85D-04 EMaxC= 1.00D-01 BMatC= 1.07D-05 BMatP= 2.45D-05
 IDIUse=3 WtCom= 9.92D-01 WtEn= 7.85D-03
 Coeff-Com: -0.884D-02 0.851D-01 0.290D+00 0.183D+00-0.339D+01 0.675D+01
 Coeff-Com: -0.575D+01 0.285D+01
 Coeff-En:   0.000D+00 0.000D+00 0.000D+00 0.000D+00 0.000D+00 0.000D+00
 Coeff-En:   0.000D+00 0.100D+01
 Coeff:     -0.877D-02 0.844D-01 0.287D+00 0.181D+00-0.337D+01 0.670D+01
 Coeff:     -0.571D+01 0.283D+01
 Gap=     0.508 Goal=   None    Shift=    0.000
 Gap=     0.627 Goal=   None    Shift=    0.000
 RMSDP=6.02D-04 MaxDP=6.79D-03 DE=-1.34D-04 OVMax= 1.21D-02

 Cycle   9  Pass 1  IDiag  1:
 E= -113.185552849562     Delta-E=       -0.000054040735 Rises=F Damp=F
 DIIS: error= 5.25D-04 at cycle   9 NSaved=   9.
 NSaved= 9 IEnMin= 9 EnMin= -113.185552849562     IErMin= 9 ErrMin= 5.25D-04
 ErrMax= 5.25D-04 EMaxC= 1.00D-01 BMatC= 5.04D-06 BMatP= 1.07D-05
 IDIUse=3 WtCom= 9.95D-01 WtEn= 5.25D-03
 Coeff-Com:  0.510D-02-0.518D-01-0.179D+00-0.445D-01 0.196D+01-0.434D+01
 Coeff-Com:  0.403D+01-0.340D+01 0.302D+01
 Coeff-En:   0.000D+00 0.000D+00 0.000D+00 0.000D+00 0.000D+00 0.000D+00
 Coeff-En:   0.000D+00 0.000D+00 0.100D+01
 Coeff:      0.507D-02-0.516D-01-0.178D+00-0.442D-01 0.195D+01-0.431D+01
 Coeff:      0.401D+01-0.338D+01 0.301D+01
 Gap=     0.509 Goal=   None    Shift=    0.000
 Gap=     0.629 Goal=   None    Shift=    0.000
 RMSDP=7.85D-04 MaxDP=8.97D-03 DE=-5.40D-05 OVMax= 1.63D-02

 Cycle  10  Pass 1  IDiag  1:
 E= -113.185591547251     Delta-E=       -0.000038697690 Rises=F Damp=F
 DIIS: error= 2.79D-04 at cycle  10 NSaved=  10.
 NSaved=10 IEnMin=10 EnMin= -113.185591547251     IErMin=10 ErrMin= 2.79D-04
 ErrMax= 2.79D-04 EMaxC= 1.00D-01 BMatC= 1.45D-06 BMatP= 5.04D-06
 IDIUse=3 WtCom= 9.97D-01 WtEn= 2.79D-03
 Coeff-Com:  0.528D-03-0.271D-02 0.105D-02-0.103D+00 0.260D+00-0.437D-02
 Coeff-Com: -0.365D+00 0.135D+01-0.226D+01 0.212D+01
 Coeff-En:   0.000D+00 0.000D+00 0.000D+00 0.000D+00 0.000D+00 0.000D+00
 Coeff-En:   0.000D+00 0.000D+00 0.000D+00 0.100D+01
 Coeff:      0.526D-03-0.270D-02 0.105D-02-0.102D+00 0.259D+00-0.436D-02
 Coeff:     -0.364D+00 0.135D+01-0.225D+01 0.212D+01
 Gap=     0.509 Goal=   None    Shift=    0.000
 Gap=     0.629 Goal=   None    Shift=    0.000
 RMSDP=3.18D-04 MaxDP=3.48D-03 DE=-3.87D-05 OVMax= 6.43D-03

 Cycle  11  Pass 1  IDiag  1:
 E= -113.185596677189     Delta-E=       -0.000005129938 Rises=F Damp=F
 DIIS: error= 3.62D-05 at cycle  11 NSaved=  11.
 NSaved=11 IEnMin=11 EnMin= -113.185596677189     IErMin=11 ErrMin= 3.62D-05
 ErrMax= 3.62D-05 EMaxC= 1.00D-01 BMatC= 6.69D-08 BMatP= 1.45D-06
 IDIUse=1 WtCom= 1.00D+00 WtEn= 0.00D+00
 Coeff-Com: -0.582D-03 0.464D-02 0.126D-01 0.480D-01-0.265D+00 0.365D+00
 Coeff-Com: -0.205D+00-0.226D+00 0.627D+00-0.911D+00 0.155D+01
 Coeff:     -0.582D-03 0.464D-02 0.126D-01 0.480D-01-0.265D+00 0.365D+00
 Coeff:     -0.205D+00-0.226D+00 0.627D+00-0.911D+00 0.155D+01
 Gap=     0.510 Goal=   None    Shift=    0.000
 Gap=     0.629 Goal=   None    Shift=    0.000
 RMSDP=5.39D-05 MaxDP=6.02D-04 DE=-5.13D-06 OVMax= 1.09D-03

 Cycle  12  Pass 1  IDiag  1:
 E= -113.185596835260     Delta-E=       -0.000000158071 Rises=F Damp=F
 DIIS: error= 6.40D-06 at cycle  12 NSaved=  12.
 NSaved=12 IEnMin=12 EnMin= -113.185596835260     IErMin=12 ErrMin= 6.40D-06
 ErrMax= 6.40D-06 EMaxC= 1.00D-01 BMatC= 3.98D-09 BMatP= 6.69D-08
 IDIUse=1 WtCom= 1.00D+00 WtEn= 0.00D+00
 Coeff-Com:  0.132D-03-0.964D-03-0.268D-02-0.121D-01 0.653D-01-0.942D-01
 Coeff-Com:  0.595D-01 0.364D-01-0.129D+00 0.236D+00-0.660D+00 0.150D+01
 Coeff:      0.132D-03-0.964D-03-0.268D-02-0.121D-01 0.653D-01-0.942D-01
 Coeff:      0.595D-01 0.364D-01-0.129D+00 0.236D+00-0.660D+00 0.150D+01
 Gap=     0.510 Goal=   None    Shift=    0.000
 Gap=     0.629 Goal=   None    Shift=    0.000
 RMSDP=5.65D-06 MaxDP=4.66D-05 DE=-1.58D-07 OVMax= 7.15D-05

 Cycle  13  Pass 1  IDiag  1:
 E= -113.185596839101     Delta-E=       -0.000000003840 Rises=F Damp=F
 DIIS: error= 1.40D-06 at cycle  13 NSaved=  13.
 NSaved=13 IEnMin=13 EnMin= -113.185596839101     IErMin=13 ErrMin= 1.40D-06
 ErrMax= 1.40D-06 EMaxC= 1.00D-01 BMatC= 2.02D-10 BMatP= 3.98D-09
 IDIUse=1 WtCom= 1.00D+00 WtEn= 0.00D+00
 Coeff-Com: -0.269D-04 0.201D-03 0.603D-03 0.213D-02-0.141D-01 0.248D-01
 Coeff-Com: -0.199D-01 0.578D-02 0.708D-02-0.347D-01 0.166D+00-0.555D+00
 Coeff-Com:  0.142D+01
 Coeff:     -0.269D-04 0.201D-03 0.603D-03 0.213D-02-0.141D-01 0.248D-01
 Coeff:     -0.199D-01 0.578D-02 0.708D-02-0.347D-01 0.166D+00-0.555D+00
 Coeff:      0.142D+01
 Gap=     0.510 Goal=   None    Shift=    0.000
 Gap=     0.629 Goal=   None    Shift=    0.000
 RMSDP=8.17D-07 MaxDP=6.23D-06 DE=-3.84D-09 OVMax= 8.67D-06

 Cycle  14  Pass 1  IDiag  1:
 E= -113.185596839220     Delta-E=       -0.000000000119 Rises=F Damp=F
 DIIS: error= 3.52D-07 at cycle  14 NSaved=  14.
 NSaved=14 IEnMin=14 EnMin= -113.185596839220     IErMin=14 ErrMin= 3.52D-07
 ErrMax= 3.52D-07 EMaxC= 1.00D-01 BMatC= 1.32D-11 BMatP= 2.02D-10
 IDIUse=1 WtCom= 1.00D+00 WtEn= 0.00D+00
 Coeff-Com:  0.940D-05-0.584D-04-0.169D-03-0.968D-03 0.534D-02-0.867D-02
 Coeff-Com:  0.641D-02 0.427D-03-0.634D-02 0.174D-01-0.750D-01 0.252D+00
 Coeff-Com: -0.765D+00 0.157D+01
 Coeff:      0.940D-05-0.584D-04-0.169D-03-0.968D-03 0.534D-02-0.867D-02
 Coeff:      0.641D-02 0.427D-03-0.634D-02 0.174D-01-0.750D-01 0.252D+00
 Coeff:     -0.765D+00 0.157D+01
 Gap=     0.510 Goal=   None    Shift=    0.000
 Gap=     0.629 Goal=   None    Shift=    0.000
 RMSDP=4.23D-07 MaxDP=4.38D-06 DE=-1.19D-10 OVMax= 8.06D-06

 Cycle  15  Pass 1  IDiag  1:
 E= -113.185596839234     Delta-E=       -0.000000000014 Rises=F Damp=F
 DIIS: error= 1.21D-07 at cycle  15 NSaved=  15.
 NSaved=15 IEnMin=15 EnMin= -113.185596839234     IErMin=15 ErrMin= 1.21D-07
 ErrMax= 1.21D-07 EMaxC= 1.00D-01 BMatC= 1.41D-12 BMatP= 1.32D-11
 IDIUse=1 WtCom= 1.00D+00 WtEn= 0.00D+00
 Coeff-Com: -0.186D-05 0.937D-05 0.296D-04 0.228D-03-0.124D-02 0.218D-02
 Coeff-Com: -0.174D-02 0.342D-03 0.581D-03-0.339D-02 0.194D-01-0.726D-01
 Coeff-Com:  0.253D+00-0.803D+00 0.161D+01
 Coeff:     -0.186D-05 0.937D-05 0.296D-04 0.228D-03-0.124D-02 0.218D-02
 Coeff:     -0.174D-02 0.342D-03 0.581D-03-0.339D-02 0.194D-01-0.726D-01
 Coeff:      0.253D+00-0.803D+00 0.161D+01
 Gap=     0.510 Goal=   None    Shift=    0.000
 Gap=     0.629 Goal=   None    Shift=    0.000
 RMSDP=9.77D-08 MaxDP=9.50D-07 DE=-1.38D-11 OVMax= 7.90D-07

 Cycle  16  Pass 1  IDiag  1:
 E= -113.185596839235     Delta-E=       -0.000000000001 Rises=F Damp=F
 DIIS: error= 3.34D-08 at cycle  16 NSaved=  16.
 NSaved=16 IEnMin=16 EnMin= -113.185596839235     IErMin=16 ErrMin= 3.34D-08
 ErrMax= 3.34D-08 EMaxC= 1.00D-01 BMatC= 7.89D-14 BMatP= 1.41D-12
 IDIUse=1 WtCom= 1.00D+00 WtEn= 0.00D+00
 Coeff-Com:  0.150D-06-0.226D-06-0.314D-05-0.202D-04 0.146D-03-0.335D-03
 Coeff-Com:  0.314D-03-0.246D-03 0.379D-03-0.105D-03-0.193D-02 0.101D-01
 Coeff-Com: -0.426D-01 0.207D+00-0.637D+00 0.146D+01
 Coeff:      0.150D-06-0.226D-06-0.314D-05-0.202D-04 0.146D-03-0.335D-03
 Coeff:      0.314D-03-0.246D-03 0.379D-03-0.105D-03-0.193D-02 0.101D-01
 Coeff:     -0.426D-01 0.207D+00-0.637D+00 0.146D+01
 Gap=     0.510 Goal=   None    Shift=    0.000
 Gap=     0.629 Goal=   None    Shift=    0.000
 RMSDP=3.63D-08 MaxDP=3.80D-07 DE=-9.66D-13 OVMax= 6.96D-07

 Cycle  17  Pass 1  IDiag  1:
 E= -113.185596839235     Delta-E=        0.000000000000 Rises=F Damp=F
 DIIS: error= 1.41D-08 at cycle  17 NSaved=  17.
 NSaved=17 IEnMin=17 EnMin= -113.185596839235     IErMin=17 ErrMin= 1.41D-08
 ErrMax= 1.41D-08 EMaxC= 1.00D-01 BMatC= 1.17D-14 BMatP= 7.89D-14
 IDIUse=1 WtCom= 1.00D+00 WtEn= 0.00D+00
 Large coefficients: NSaved= 17 BigCof=    0.00 CofMax=   10.00 Det=-4.10D-15
 Inversion failed.  Reducing to 16 matrices.
 Large coefficients: NSaved= 16 BigCof=    0.00 CofMax=   10.00 Det=-4.15D-15
 Inversion failed.  Reducing to 15 matrices.
 Coeff-Com:  0.178D-05 0.175D-05-0.484D-04 0.152D-03-0.158D-03 0.173D-03
 Coeff-Com: -0.335D-03 0.284D-03 0.273D-03-0.305D-02 0.157D-01-0.104D+00
 Coeff-Com:  0.381D+00-0.128D+01 0.199D+01
 Coeff:      0.178D-05 0.175D-05-0.484D-04 0.152D-03-0.158D-03 0.173D-03
 Coeff:     -0.335D-03 0.284D-03 0.273D-03-0.305D-02 0.157D-01-0.104D+00
 Coeff:      0.381D+00-0.128D+01 0.199D+01
 Gap=     0.510 Goal=   None    Shift=    0.000
 Gap=     0.629 Goal=   None    Shift=    0.000
 RMSDP=1.53D-08 MaxDP=1.09D-07 DE=-1.71D-13 OVMax= 1.93D-07

 Cycle  18  Pass 1  IDiag  1:
 E= -113.185596839235     Delta-E=        0.000000000000 Rises=F Damp=F
 DIIS: error= 3.01D-09 at cycle  18 NSaved=  16.
 NSaved=16 IEnMin=15 EnMin= -113.185596839235     IErMin=16 ErrMin= 3.01D-09
 ErrMax= 3.01D-09 EMaxC= 1.00D-01 BMatC= 5.82D-16 BMatP= 1.17D-14
 IDIUse=1 WtCom= 1.00D+00 WtEn= 0.00D+00
 Large coefficients: NSaved= 16 BigCof=    0.00 CofMax=   10.00 Det=-2.37D-16
 Inversion failed.  Reducing to 15 matrices.
 Coeff-Com: -0.115D-05 0.588D-05-0.149D-04 0.120D-04-0.457D-05 0.216D-04
 Coeff-Com: -0.110D-04-0.292D-04 0.230D-03-0.982D-03 0.835D-02-0.342D-01
 Coeff-Com:  0.175D+00-0.433D+00 0.128D+01
 Coeff:     -0.115D-05 0.588D-05-0.149D-04 0.120D-04-0.457D-05 0.216D-04
 Coeff:     -0.110D-04-0.292D-04 0.230D-03-0.982D-03 0.835D-02-0.342D-01
 Coeff:      0.175D+00-0.433D+00 0.128D+01
 Gap=     0.510 Goal=   None    Shift=    0.000
 Gap=     0.629 Goal=   None    Shift=    0.000
 RMSDP=3.95D-09 MaxDP=4.15D-08 DE= 0.00D+00 OVMax= 6.96D-08

 SCF Done:  E(UHF) =  -113.185596839     A.U. after   18 cycles
             Convg  =    0.3946D-08             -V/T =  2.0001
 <Sx>= 0.0000 <Sy>= 0.0000 <Sz>= 0.5000 <S**2>= 0.7759 S= 0.5129
 <L.S>= 0.000000000000E+00
 KE= 1.131692043310D+02 PE=-3.198802780527D+02 EE= 6.701438104980D+01
 Annihilation of the first spin contaminant:
 S**2 before annihilation     0.7759,   after     0.7503
 Leave Link  502 at Wed May 26 14:44:16 2021, MaxMem=   33554432 cpu:       0.1
 (Enter /home/emil/gauss09/g09/l601.exe)
 Copying SCF densities to generalized density rwf, IOpCl= 1 IROHF=0.

 **********************************************************************

            Population analysis using the SCF density.

 **********************************************************************

 Orbital symmetries:
 Alpha Orbitals:
       Occupied  (A') (A') (A') (A') (A') (A') (A") (A')
       Virtual   (A") (A') (A') (A') (A") (A') (A') (A') (A') (A")
                 (A') (A')
 Beta  Orbitals:
       Occupied  (A') (A') (A') (A') (A') (A") (A')
       Virtual   (A') (A") (A') (A') (A") (A') (A') (A') (A') (A')
                 (A") (A') (A')
 The electronic state is 2-A'.
 Alpha  occ. eigenvalues --  -20.63309 -11.37551  -1.48452  -0.86260  -0.71339
 Alpha  occ. eigenvalues --   -0.64774  -0.56639  -0.38867
 Alpha virt. eigenvalues --    0.12087   0.25829   0.37758   0.69820   0.71691
 Alpha virt. eigenvalues --    0.85158   0.99184   1.08471   1.21198   1.25306
 Alpha virt. eigenvalues --    1.27758   1.86523
  Beta  occ. eigenvalues --  -20.62596 -11.35256  -1.46222  -0.79974  -0.66290
  Beta  occ. eigenvalues --   -0.58197  -0.52505
  Beta virt. eigenvalues --    0.10436   0.14961   0.29363   0.39831   0.75049
  Beta virt. eigenvalues --    0.79492   0.88511   1.01332   1.12184   1.23165
  Beta virt. eigenvalues --    1.23451   1.32162   1.87313
          Condensed to atoms (all electrons):
              1          2          3
     1  C    5.096088   0.392912   0.273054
     2  O    0.392912   8.070960  -0.051955
     3  H    0.273054  -0.051955   0.604930
 Mulliken atomic charges:
              1
     1  C    0.237946
     2  O   -0.411917
     3  H    0.173971
 Sum of Mulliken atomic charges =   0.00000
 Mulliken charges with hydrogens summed into heavy atoms:
              1
     1  C    0.411917
     2  O   -0.411917
 Sum of Mulliken charges with hydrogens summed into heavy atoms =   0.00000
          Atomic-Atomic Spin Densities.
              1          2          3
     1  C    1.065491  -0.167214  -0.083719
     2  O   -0.167214   0.220500  -0.009441
     3  H   -0.083719  -0.009441   0.234756
 Mulliken atomic spin densities:
              1
     1  C    0.814559
     2  O    0.043845
     3  H    0.141596
 Sum of Mulliken atomic spin densities =   1.00000
 Electronic spatial extent (au):  <R**2>=             50.6648
 Charge=              0.0000 electrons
 Dipole moment (field-independent basis, Debye):
    X=             -0.9793    Y=              2.2605    Z=              0.0000  Tot=              2.4635
 Quadrupole moment (field-independent basis, Debye-Ang):
   XX=            -11.2115   YY=            -11.8469   ZZ=            -10.7979
   XY=             -0.9721   XZ=              0.0000   YZ=              0.0000
 Traceless Quadrupole moment (field-independent basis, Debye-Ang):
   XX=              0.0740   YY=             -0.5615   ZZ=              0.4875
   XY=             -0.9721   XZ=              0.0000   YZ=              0.0000
 Octapole moment (field-independent basis, Debye-Ang**2):
  XXX=             -0.9421  YYY=             -0.9274  ZZZ=              0.0000  XYY=             -1.5476
  XXY=             -0.3298  XXZ=              0.0000  XZZ=             -0.1089  YZZ=             -0.6133
  YYZ=              0.0000  XYZ=              0.0000
 Hexadecapole moment (field-independent basis, Debye-Ang**3):
 XXXX=            -13.3116 YYYY=            -38.0744 ZZZZ=             -8.7605 XXXY=              1.3809
 XXXZ=              0.0000 YYYX=              0.4533 YYYZ=              0.0000 ZZZX=              0.0000
 ZZZY=              0.0000 XXYY=             -8.3572 XXZZ=             -3.7708 YYZZ=             -7.8419
 XXYZ=              0.0000 YYXZ=              0.0000 ZZXY=              0.7019
 N-N= 2.651109583264D+01 E-N=-4.755148054703D+02  KE= 1.688729734045D+02
 Symmetry A'   KE= 1.632541713020D+02
 Symmetry A"   KE= 5.618802102418D+00
                          Isotropic Fermi Contact Couplings
        Atom                 a.u.       MegaHertz       Gauss      10(-4) cm-1
     1  C(13)              0.41354     464.90006     165.88790     155.07397
     2  O(17)              0.07483     -45.36027     -16.18567     -15.13056
     3  H(1)               0.07114     317.98856     113.46622     106.06957
 --------------------------------------------------------
       Center         ----  Spin Dipole Couplings  ----
                      3XX-RR        3YY-RR        3ZZ-RR
 --------------------------------------------------------
     1   Atom        0.413606     -0.206541     -0.207064
     2   Atom        1.416144     -0.258435     -1.157709
     3   Atom        0.028266      0.005585     -0.033851
 --------------------------------------------------------
                        XY            XZ            YZ
 --------------------------------------------------------
     1   Atom        0.487711      0.000000      0.000000
     2   Atom        0.478046      0.000000      0.000000
     3   Atom       -0.037113      0.000000      0.000000
 --------------------------------------------------------


 ---------------------------------------------------------------------------------
              Anisotropic Spin Dipole Couplings in Principal Axis System
 ---------------------------------------------------------------------------------

       Atom             a.u.   MegaHertz   Gauss  10(-4) cm-1        Axes

              Baa    -0.4744   -63.660   -22.716   -21.235 -0.4814  0.8765  0.0000
     1 C(13)  Bbb    -0.2071   -27.786    -9.915    -9.268  0.0000  0.0000  1.0000
              Bcc     0.6815    91.446    32.630    30.503  0.8765  0.4814  0.0000
 
              Baa    -1.1577    83.771    29.892    27.943  0.0000  0.0000  1.0000
     2 O(17)  Bbb    -0.3853    27.880     9.948     9.300 -0.2565  0.9665  0.0000
              Bcc     1.5430  -111.651   -39.840   -37.243  0.9665  0.2565  0.0000
 
              Baa    -0.0339   -18.061    -6.445    -6.025  0.0000  0.0000  1.0000
     3 H(1)   Bbb    -0.0219   -11.675    -4.166    -3.894  0.5949  0.8038  0.0000
              Bcc     0.0557    29.736    10.611     9.919  0.8038 -0.5949  0.0000
 

 ---------------------------------------------------------------------------------

 No NMR shielding tensors so no spin-rotation constants.
 Leave Link  601 at Wed May 26 14:44:16 2021, MaxMem=   33554432 cpu:       0.2
 (Enter /home/emil/gauss09/g09/l9999.exe)
 1\1\GINC-KONG-SRV\SP\UHF\6-31G\C1H1O1(2)\EMIL\26-May-2021\0\\#P HF/6-3
 1G\\HCO\\0,2\C\O,1,1.17660934\H,1,1.1165686,2,125.15230551\\Version=EM
 64L-G09RevB.01\State=2-A'\HF=-113.1855968\S2=0.775866\S2-1=0.\S2A=0.75
 0283\RMSD=3.946e-09\Dipole=0.3852786,0.,-0.8893309\Quadrupole=0.054988
 3,0.3624665,-0.4174549,0.,-0.7227667,0.\PG=CS [SG(C1H1O1)]\\@


 THERE IS NO SCIENCE WITHOUT FANCY, NOR ART WITHOUT FACTS.
     -- VLADIMIR NABAKOV
 Job cpu time:  0 days  0 hours  0 minutes  1.0 seconds.
 File lengths (MBytes):  RWF=      5 Int=      0 D2E=      0 Chk=      1 Scr=      1
 Normal termination of Gaussian 09 at Wed May 26 14:44:16 2021.
