 Entering Gaussian System, Link 0=g09
 Input=HOCl.com
 Output=HOCl.log
 Initial command:
 /home/emil/gauss09/g09/l1.exe /home/emil/scratch/g09/Gau-10062.inp -scrdir=/home/emil/scratch/g09/
 Entering Link 1 = /home/emil/gauss09/g09/l1.exe PID=     10064.
  
 Copyright (c) 1988,1990,1992,1993,1995,1998,2003,2009,2010,
            Gaussian, Inc.  All Rights Reserved.
  
 This is part of the Gaussian(R) 09 program.  It is based on
 the Gaussian(R) 03 system (copyright 2003, Gaussian, Inc.),
 the Gaussian(R) 98 system (copyright 1998, Gaussian, Inc.),
 the Gaussian(R) 94 system (copyright 1995, Gaussian, Inc.),
 the Gaussian 92(TM) system (copyright 1992, Gaussian, Inc.),
 the Gaussian 90(TM) system (copyright 1990, Gaussian, Inc.),
 the Gaussian 88(TM) system (copyright 1988, Gaussian, Inc.),
 the Gaussian 86(TM) system (copyright 1986, Carnegie Mellon
 University), and the Gaussian 82(TM) system (copyright 1983,
 Carnegie Mellon University). Gaussian is a federally registered
 trademark of Gaussian, Inc.
  
 This software contains proprietary and confidential information,
 including trade secrets, belonging to Gaussian, Inc.
  
 This software is provided under written license and may be
 used, copied, transmitted, or stored only in accord with that
 written license.
  
 The following legend is applicable only to US Government
 contracts under FAR:
  
                    RESTRICTED RIGHTS LEGEND
  
 Use, reproduction and disclosure by the US Government is
 subject to restrictions as set forth in subparagraphs (a)
 and (c) of the Commercial Computer Software - Restricted
 Rights clause in FAR 52.227-19.
  
 Gaussian, Inc.
 340 Quinnipiac St., Bldg. 40, Wallingford CT 06492
  
  
 ---------------------------------------------------------------
 Warning -- This program may not be used in any manner that
 competes with the business of Gaussian, Inc. or will provide
 assistance to any competitor of Gaussian, Inc.  The licensee
 of this program is prohibited from giving any competitor of
 Gaussian, Inc. access to this program.  By using this program,
 the user acknowledges that Gaussian, Inc. is engaged in the
 business of creating and licensing software in the field of
 computational chemistry and represents and warrants to the
 licensee that it is not a competitor of Gaussian, Inc. and that
 it will not use this program in any manner prohibited above.
 ---------------------------------------------------------------
  

 Cite this work as:
 Gaussian 09, Revision B.01,
 M. J. Frisch, G. W. Trucks, H. B. Schlegel, G. E. Scuseria, 
 M. A. Robb, J. R. Cheeseman, G. Scalmani, V. Barone, B. Mennucci, 
 G. A. Petersson, H. Nakatsuji, M. Caricato, X. Li, H. P. Hratchian, 
 A. F. Izmaylov, J. Bloino, G. Zheng, J. L. Sonnenberg, M. Hada, 
 M. Ehara, K. Toyota, R. Fukuda, J. Hasegawa, M. Ishida, T. Nakajima, 
 Y. Honda, O. Kitao, H. Nakai, T. Vreven, J. A. Montgomery, Jr., 
 J. E. Peralta, F. Ogliaro, M. Bearpark, J. J. Heyd, E. Brothers, 
 K. N. Kudin, V. N. Staroverov, T. Keith, R. Kobayashi, J. Normand, 
 K. Raghavachari, A. Rendell, J. C. Burant, S. S. Iyengar, J. Tomasi, 
 M. Cossi, N. Rega, J. M. Millam, M. Klene, J. E. Knox, J. B. Cross, 
 V. Bakken, C. Adamo, J. Jaramillo, R. Gomperts, R. E. Stratmann, 
 O. Yazyev, A. J. Austin, R. Cammi, C. Pomelli, J. W. Ochterski, 
 R. L. Martin, K. Morokuma, V. G. Zakrzewski, G. A. Voth, 
 P. Salvador, J. J. Dannenberg, S. Dapprich, A. D. Daniels, 
 O. Farkas, J. B. Foresman, J. V. Ortiz, J. Cioslowski, 
 and D. J. Fox, Gaussian, Inc., Wallingford CT, 2010.
 
 ******************************************
 Gaussian 09:  EM64L-G09RevB.01 12-Aug-2010
                26-May-2021 
 ******************************************
 -----------
 #P HF/6-31G
 -----------
 1/38=1/1;
 2/12=2,17=6,18=5,40=1/2;
 3/5=1,6=6,11=9,16=1,25=1,30=1/1,2,3;
 4//1;
 5/5=2,38=5/2;
 6/7=2,8=2,9=2,10=2,28=1/1;
 99/5=1,9=1/99;
 Leave Link    1 at Wed May 26 14:45:44 2021, MaxMem=          0 cpu:       0.0
 (Enter /home/emil/gauss09/g09/l101.exe)
 ----
 HOCl
 ----
 Symbolic Z-matrix:
 Charge =  0 Multiplicity = 1
 O
 H                    1    OH
 Cl                   1    OCl      2    HOCl
       Variables:
  OH                    0.96211                  
  OCl                   1.68836                  
  HOCl                103.43649                  
 
 NAtoms=      3 NQM=      3 NQMF=      0 NMic=      0 NMicF=      0 NTot=      3.
                    Isotopes and Nuclear Properties:
 (Nuclear quadrupole moments (NQMom) in fm**2, nuclear magnetic moments (NMagM)
  in nuclear magnetons)

  Atom         1           2           3
 IAtWgt=          16           1          35
 AtmWgt=  15.9949146   1.0078250  34.9688527
 NucSpn=           0           1           3
 AtZEff=   0.0000000   0.0000000   0.0000000
 NQMom=    0.0000000   0.0000000  -8.1650000
 NMagM=    0.0000000   2.7928460   0.8218740
 Leave Link  101 at Wed May 26 14:45:44 2021, MaxMem=   33554432 cpu:       0.1
 (Enter /home/emil/gauss09/g09/l202.exe)
                          Input orientation:                          
 ---------------------------------------------------------------------
 Center     Atomic      Atomic             Coordinates (Angstroms)
 Number     Number       Type             X           Y           Z
 ---------------------------------------------------------------------
      1          8           0        0.000000    0.000000    0.000000
      2          1           0        0.000000    0.000000    0.962107
      3         17           0        1.642150    0.000000   -0.392321
 ---------------------------------------------------------------------
                    Distance matrix (angstroms):
                    1          2          3
     1  O    0.000000
     2  H    0.962107   0.000000
     3  Cl   1.688363   2.128645   0.000000
 Stoichiometry    ClHO
 Framework group  CS[SG(ClHO)]
 Deg. of freedom     3
 Full point group                 CS      NOp   2
 Largest Abelian subgroup         CS      NOp   2
 Largest concise Abelian subgroup C1      NOp   1
                         Standard orientation:                         
 ---------------------------------------------------------------------
 Center     Atomic      Atomic             Coordinates (Angstroms)
 Number     Number       Type             X           Y           Z
 ---------------------------------------------------------------------
      1          8           0        0.035991    1.095331    0.000000
      2          1           0       -0.899781    1.318894    0.000000
      3         17           0        0.035991   -0.593032    0.000000
 ---------------------------------------------------------------------
 Rotational constants (GHZ):    620.1558835     15.2117486     14.8475543
 Leave Link  202 at Wed May 26 14:45:44 2021, MaxMem=   33554432 cpu:       0.0
 (Enter /home/emil/gauss09/g09/l301.exe)
 Standard basis: 6-31G (6D, 7F)
 Ernie: Thresh=  0.10000D-02 Tol=  0.10000D-05 Strict=F.
 There are    19 symmetry adapted basis functions of A'  symmetry.
 There are     5 symmetry adapted basis functions of A"  symmetry.
 Integral buffers will be    131072 words long.
 Raffenetti 1 integral format.
 Two-electron integral symmetry is turned on.
    24 basis functions,    72 primitive gaussians,    24 cartesian basis functions
    13 alpha electrons       13 beta electrons
       nuclear repulsion energy        51.2522780121 Hartrees.
 IExCor=    0 DFT=F Ex=HF Corr=None ExCW=0 ScaHFX=  1.000000
 ScaDFX=  1.000000  1.000000  1.000000  1.000000 ScalE2=  1.000000  1.000000
 IRadAn=      0 IRanWt=     -1 IRanGd=            0 ICorTp=0
 NAtoms=    3 NActive=    3 NUniq=    3 SFac= 1.00D+00 NAtFMM=   50 NAOKFM=F Big=F
 Leave Link  301 at Wed May 26 14:45:44 2021, MaxMem=   33554432 cpu:       0.0
 (Enter /home/emil/gauss09/g09/l302.exe)
 NPDir=0 NMtPBC=     1 NCelOv=     1 NCel=       1 NClECP=     1 NCelD=      1
         NCelK=      1 NCelE2=     1 NClLst=     1 CellRange=     0.0.
 One-electron integrals computed using PRISM.
 NBasis=    24 RedAO= T  NBF=    19     5
 NBsUse=    24 1.00D-06 NBFU=    19     5
 Leave Link  302 at Wed May 26 14:45:44 2021, MaxMem=   33554432 cpu:       0.2
 (Enter /home/emil/gauss09/g09/l303.exe)
 DipDrv:  MaxL=1.
 Leave Link  303 at Wed May 26 14:45:44 2021, MaxMem=   33554432 cpu:       0.1
 (Enter /home/emil/gauss09/g09/l401.exe)
 Harris functional with IExCor=  205 diagonalized for initial guess.
 ExpMin= 1.43D-01 ExpMax= 2.52D+04 ExpMxC= 3.78D+03 IAcc=1 IRadAn=         1 AccDes= 0.00D+00
 HarFok:  IExCor=  205 AccDes= 0.00D+00 IRadAn=         1 IDoV= 1
 ScaDFX=  1.000000  1.000000  1.000000  1.000000
 FoFCou: FMM=F IPFlag=           0 FMFlag=      100000 FMFlg1=           0
         NFxFlg=           0 DoJE=T BraDBF=F KetDBF=T FulRan=T
         Omega=  0.000000  0.000000  1.000000  0.000000  0.000000 ICntrl=     500 IOpCl=  0
         NMat0=    1 NMatS0=    1 NMatT0=    0 NMatD0=    1 NMtDS0=    0 NMtDT0=    0
         I1Cent=           4 NGrid=           0.
 Petite list used in FoFCou.
 Harris En= -534.370562246442    
 Initial guess orbital symmetries:
       Occupied  (A') (A') (A') (A') (A') (A") (A') (A') (A') (A')
                 (A") (A') (A")
       Virtual   (A') (A') (A') (A') (A") (A') (A') (A") (A') (A')
                 (A')
 The electronic state of the initial guess is 1-A'.
 Leave Link  401 at Wed May 26 14:45:45 2021, MaxMem=   33554432 cpu:       0.3
 (Enter /home/emil/gauss09/g09/l502.exe)
 Closed shell SCF:
 Requested convergence on RMS density matrix=1.00D-08 within 128 cycles.
 Requested convergence on MAX density matrix=1.00D-06.
 Requested convergence on             energy=1.00D-06.
 No special actions if energy rises.
 Using DIIS extrapolation, IDIIS=  1040.
 Integral symmetry usage will be decided dynamically.
 Keep R1 ints in memory in canonical form, NReq=865374.
 IEnd=       20210 IEndB=       20210 NGot=    33554432 MDV=    33506285
 LenX=    33506285 LenY=    33505268
 Symmetry not used in FoFDir.
 MinBra= 0 MaxBra= 1 Meth= 1.
 IRaf=       0 NMat=   1 IRICut=       1 DoRegI=T DoRafI=F ISym2E= 0 JSym2E=0.

 Cycle   1  Pass 1  IDiag  1:
 E= -534.745488724769    
 DIIS: error= 4.22D-02 at cycle   1 NSaved=   1.
 NSaved= 1 IEnMin= 1 EnMin= -534.745488724769     IErMin= 1 ErrMin= 4.22D-02
 ErrMax= 4.22D-02 EMaxC= 1.00D-01 BMatC= 8.56D-02 BMatP= 8.56D-02
 IDIUse=3 WtCom= 5.78D-01 WtEn= 4.22D-01
 Coeff-Com:  0.100D+01
 Coeff-En:   0.100D+01
 Coeff:      0.100D+01
 Gap=     0.576 Goal=   None    Shift=    0.000
 GapD=    0.576 DampG=2.000 DampE=0.500 DampFc=1.0000 IDamp=-1.
 RMSDP=9.39D-03 MaxDP=9.23D-02              OVMax= 0.00D+00

 Cycle   2  Pass 1  IDiag  1:
 E= -534.773281344690     Delta-E=       -0.027792619921 Rises=F Damp=F
 DIIS: error= 2.97D-02 at cycle   2 NSaved=   2.
 NSaved= 2 IEnMin= 2 EnMin= -534.773281344690     IErMin= 2 ErrMin= 2.97D-02
 ErrMax= 2.97D-02 EMaxC= 1.00D-01 BMatC= 1.97D-02 BMatP= 8.56D-02
 IDIUse=3 WtCom= 7.03D-01 WtEn= 2.97D-01
 Coeff-Com:  0.278D+00 0.722D+00
 Coeff-En:   0.626D-01 0.937D+00
 Coeff:      0.214D+00 0.786D+00
 Gap=     0.584 Goal=   None    Shift=    0.000
 RMSDP=5.38D-03 MaxDP=4.33D-02 DE=-2.78D-02 OVMax= 0.00D+00

 Cycle   3  Pass 1  IDiag  1:
 E= -534.786086230230     Delta-E=       -0.012804885540 Rises=F Damp=F
 DIIS: error= 7.83D-03 at cycle   3 NSaved=   3.
 NSaved= 3 IEnMin= 3 EnMin= -534.786086230230     IErMin= 3 ErrMin= 7.83D-03
 ErrMax= 7.83D-03 EMaxC= 1.00D-01 BMatC= 2.15D-03 BMatP= 1.97D-02
 IDIUse=3 WtCom= 9.22D-01 WtEn= 7.83D-02
 Coeff-Com: -0.264D-01 0.225D+00 0.802D+00
 Coeff-En:   0.000D+00 0.000D+00 0.100D+01
 Coeff:     -0.244D-01 0.207D+00 0.817D+00
 Gap=     0.553 Goal=   None    Shift=    0.000
 RMSDP=1.44D-03 MaxDP=1.45D-02 DE=-1.28D-02 OVMax= 0.00D+00

 Cycle   4  Pass 1  IDiag  1:
 E= -534.787913049039     Delta-E=       -0.001826818809 Rises=F Damp=F
 DIIS: error= 1.62D-03 at cycle   4 NSaved=   4.
 NSaved= 4 IEnMin= 4 EnMin= -534.787913049039     IErMin= 4 ErrMin= 1.62D-03
 ErrMax= 1.62D-03 EMaxC= 1.00D-01 BMatC= 3.90D-05 BMatP= 2.15D-03
 IDIUse=3 WtCom= 9.84D-01 WtEn= 1.62D-02
 Coeff-Com:  0.565D-02-0.118D+00-0.233D+00 0.135D+01
 Coeff-En:   0.000D+00 0.000D+00 0.000D+00 0.100D+01
 Coeff:      0.556D-02-0.116D+00-0.229D+00 0.134D+01
 Gap=     0.551 Goal=   None    Shift=    0.000
 RMSDP=3.12D-04 MaxDP=2.90D-03 DE=-1.83D-03 OVMax= 0.00D+00

 Cycle   5  Pass 1  IDiag  1:
 E= -534.787962047226     Delta-E=       -0.000048998187 Rises=F Damp=F
 DIIS: error= 2.26D-04 at cycle   5 NSaved=   5.
 NSaved= 5 IEnMin= 5 EnMin= -534.787962047226     IErMin= 5 ErrMin= 2.26D-04
 ErrMax= 2.26D-04 EMaxC= 1.00D-01 BMatC= 8.12D-07 BMatP= 3.90D-05
 IDIUse=3 WtCom= 9.98D-01 WtEn= 2.26D-03
 Coeff-Com: -0.106D-02 0.344D-01 0.622D-01-0.539D+00 0.144D+01
 Coeff-En:   0.000D+00 0.000D+00 0.000D+00 0.000D+00 0.100D+01
 Coeff:     -0.106D-02 0.344D-01 0.620D-01-0.538D+00 0.144D+01
 Gap=     0.551 Goal=   None    Shift=    0.000
 RMSDP=8.89D-05 MaxDP=5.83D-04 DE=-4.90D-05 OVMax= 0.00D+00

 Cycle   6  Pass 1  IDiag  1:
 E= -534.787964351322     Delta-E=       -0.000002304096 Rises=F Damp=F
 DIIS: error= 3.23D-05 at cycle   6 NSaved=   6.
 NSaved= 6 IEnMin= 6 EnMin= -534.787964351322     IErMin= 6 ErrMin= 3.23D-05
 ErrMax= 3.23D-05 EMaxC= 1.00D-01 BMatC= 2.54D-08 BMatP= 8.12D-07
 IDIUse=1 WtCom= 1.00D+00 WtEn= 0.00D+00
 Coeff-Com: -0.244D-03 0.999D-03 0.370D-02 0.134D-01-0.201D+00 0.118D+01
 Coeff:     -0.244D-03 0.999D-03 0.370D-02 0.134D-01-0.201D+00 0.118D+01
 Gap=     0.551 Goal=   None    Shift=    0.000
 RMSDP=1.50D-05 MaxDP=1.10D-04 DE=-2.30D-06 OVMax= 0.00D+00

 Cycle   7  Pass 1  IDiag  1:
 E= -534.787964435816     Delta-E=       -0.000000084494 Rises=F Damp=F
 DIIS: error= 1.15D-05 at cycle   7 NSaved=   7.
 NSaved= 7 IEnMin= 7 EnMin= -534.787964435816     IErMin= 7 ErrMin= 1.15D-05
 ErrMax= 1.15D-05 EMaxC= 1.00D-01 BMatC= 3.10D-09 BMatP= 2.54D-08
 IDIUse=1 WtCom= 1.00D+00 WtEn= 0.00D+00
 Coeff-Com:  0.189D-03-0.372D-02-0.721D-02 0.503D-01-0.980D-01-0.194D+00
 Coeff-Com:  0.125D+01
 Coeff:      0.189D-03-0.372D-02-0.721D-02 0.503D-01-0.980D-01-0.194D+00
 Coeff:      0.125D+01
 Gap=     0.551 Goal=   None    Shift=    0.000
 RMSDP=5.92D-06 MaxDP=3.66D-05 DE=-8.45D-08 OVMax= 0.00D+00

 Cycle   8  Pass 1  IDiag  1:
 E= -534.787964447439     Delta-E=       -0.000000011623 Rises=F Damp=F
 DIIS: error= 4.00D-06 at cycle   8 NSaved=   8.
 NSaved= 8 IEnMin= 8 EnMin= -534.787964447439     IErMin= 8 ErrMin= 4.00D-06
 ErrMax= 4.00D-06 EMaxC= 1.00D-01 BMatC= 3.19D-10 BMatP= 3.10D-09
 IDIUse=1 WtCom= 1.00D+00 WtEn= 0.00D+00
 Coeff-Com: -0.494D-04 0.121D-02 0.220D-02-0.196D-01 0.563D-01-0.465D-01
 Coeff-Com: -0.471D+00 0.148D+01
 Coeff:     -0.494D-04 0.121D-02 0.220D-02-0.196D-01 0.563D-01-0.465D-01
 Coeff:     -0.471D+00 0.148D+01
 Gap=     0.551 Goal=   None    Shift=    0.000
 RMSDP=2.71D-06 MaxDP=1.68D-05 DE=-1.16D-08 OVMax= 0.00D+00

 Cycle   9  Pass 1  IDiag  1:
 E= -534.787964449097     Delta-E=       -0.000000001658 Rises=F Damp=F
 DIIS: error= 6.97D-07 at cycle   9 NSaved=   9.
 NSaved= 9 IEnMin= 9 EnMin= -534.787964449097     IErMin= 9 ErrMin= 6.97D-07
 ErrMax= 6.97D-07 EMaxC= 1.00D-01 BMatC= 1.99D-11 BMatP= 3.19D-10
 IDIUse=1 WtCom= 1.00D+00 WtEn= 0.00D+00
 Coeff-Com:  0.861D-05-0.258D-03-0.428D-03 0.496D-02-0.174D-01 0.330D-01
 Coeff-Com:  0.122D+00-0.673D+00 0.153D+01
 Coeff:      0.861D-05-0.258D-03-0.428D-03 0.496D-02-0.174D-01 0.330D-01
 Coeff:      0.122D+00-0.673D+00 0.153D+01
 Gap=     0.551 Goal=   None    Shift=    0.000
 RMSDP=8.89D-07 MaxDP=5.63D-06 DE=-1.66D-09 OVMax= 0.00D+00

 Cycle  10  Pass 1  IDiag  1:
 E= -534.787964449218     Delta-E=       -0.000000000121 Rises=F Damp=F
 DIIS: error= 1.59D-07 at cycle  10 NSaved=  10.
 NSaved=10 IEnMin=10 EnMin= -534.787964449218     IErMin=10 ErrMin= 1.59D-07
 ErrMax= 1.59D-07 EMaxC= 1.00D-01 BMatC= 8.73D-13 BMatP= 1.99D-11
 IDIUse=1 WtCom= 1.00D+00 WtEn= 0.00D+00
 Coeff-Com: -0.430D-06 0.349D-04 0.459D-04-0.945D-03 0.403D-02-0.110D-01
 Coeff-Com: -0.218D-01 0.178D+00-0.583D+00 0.143D+01
 Coeff:     -0.430D-06 0.349D-04 0.459D-04-0.945D-03 0.403D-02-0.110D-01
 Coeff:     -0.218D-01 0.178D+00-0.583D+00 0.143D+01
 Gap=     0.551 Goal=   None    Shift=    0.000
 RMSDP=1.84D-07 MaxDP=1.16D-06 DE=-1.21D-10 OVMax= 0.00D+00

 Cycle  11  Pass 1  IDiag  1:
 E= -534.787964449222     Delta-E=       -0.000000000004 Rises=F Damp=F
 DIIS: error= 3.12D-08 at cycle  11 NSaved=  11.
 NSaved=11 IEnMin=11 EnMin= -534.787964449222     IErMin=11 ErrMin= 3.12D-08
 ErrMax= 3.12D-08 EMaxC= 1.00D-01 BMatC= 2.95D-14 BMatP= 8.73D-13
 IDIUse=1 WtCom= 1.00D+00 WtEn= 0.00D+00
 Coeff-Com:  0.760D-07-0.726D-05-0.101D-04 0.200D-03-0.788D-03 0.208D-02
 Coeff-Com:  0.410D-02-0.340D-01 0.123D+00-0.441D+00 0.135D+01
 Coeff:      0.760D-07-0.726D-05-0.101D-04 0.200D-03-0.788D-03 0.208D-02
 Coeff:      0.410D-02-0.340D-01 0.123D+00-0.441D+00 0.135D+01
 Gap=     0.551 Goal=   None    Shift=    0.000
 RMSDP=2.90D-08 MaxDP=2.12D-07 DE=-4.32D-12 OVMax= 0.00D+00

 Cycle  12  Pass 1  IDiag  1:
 E= -534.787964449223     Delta-E=        0.000000000000 Rises=F Damp=F
 DIIS: error= 5.58D-09 at cycle  12 NSaved=  12.
 NSaved=12 IEnMin=12 EnMin= -534.787964449223     IErMin=12 ErrMin= 5.58D-09
 ErrMax= 5.58D-09 EMaxC= 1.00D-01 BMatC= 1.58D-15 BMatP= 2.95D-14
 IDIUse=1 WtCom= 1.00D+00 WtEn= 0.00D+00
 Coeff-Com: -0.487D-10 0.156D-05 0.217D-05-0.529D-04 0.202D-03-0.551D-03
 Coeff-Com: -0.113D-02 0.946D-02-0.367D-01 0.158D+00-0.663D+00 0.153D+01
 Coeff:     -0.487D-10 0.156D-05 0.217D-05-0.529D-04 0.202D-03-0.551D-03
 Coeff:     -0.113D-02 0.946D-02-0.367D-01 0.158D+00-0.663D+00 0.153D+01
 Gap=     0.551 Goal=   None    Shift=    0.000
 RMSDP=5.58D-09 MaxDP=4.79D-08 DE=-3.41D-13 OVMax= 0.00D+00

 SCF Done:  E(RHF) =  -534.787964449     A.U. after   12 cycles
             Convg  =    0.5581D-08             -V/T =  1.9996
 KE= 5.350140794961D+02 PE=-1.375649513158D+03 EE= 2.545951912006D+02
 Leave Link  502 at Wed May 26 14:45:45 2021, MaxMem=   33554432 cpu:       0.1
 (Enter /home/emil/gauss09/g09/l601.exe)
 Copying SCF densities to generalized density rwf, IOpCl= 0 IROHF=0.

 **********************************************************************

            Population analysis using the SCF density.

 **********************************************************************

 Orbital symmetries:
       Occupied  (A') (A') (A') (A') (A') (A") (A') (A') (A') (A")
                 (A') (A') (A")
       Virtual   (A') (A') (A') (A') (A") (A') (A') (A") (A') (A')
                 (A')
 The electronic state is 1-A'.
 Alpha  occ. eigenvalues -- -104.87309 -20.65286 -10.61178  -8.08078  -8.07516
 Alpha  occ. eigenvalues --   -8.07487  -1.43311  -1.07047  -0.71807  -0.61819
 Alpha  occ. eigenvalues --   -0.58945  -0.47356  -0.45116
 Alpha virt. eigenvalues --    0.09968   0.22914   0.55516   0.61249   0.61822
 Alpha virt. eigenvalues --    0.62346   1.08748   1.14598   1.21466   1.35586
 Alpha virt. eigenvalues --    1.68306
          Condensed to atoms (all electrons):
              1          2          3
     1  O    8.445614   0.242394  -0.003211
     2  H    0.242394   0.348710  -0.033465
     3  Cl  -0.003211  -0.033465  16.794242
 Mulliken atomic charges:
              1
     1  O   -0.684797
     2  H    0.442362
     3  Cl   0.242434
 Sum of Mulliken atomic charges =   0.00000
 Mulliken charges with hydrogens summed into heavy atoms:
              1
     1  O   -0.242434
     3  Cl   0.242434
 Sum of Mulliken charges with hydrogens summed into heavy atoms =   0.00000
 Electronic spatial extent (au):  <R**2>=            104.6410
 Charge=              0.0000 electrons
 Dipole moment (field-independent basis, Debye):
    X=             -2.2046    Y=              0.0687    Z=              0.0000  Tot=              2.2056
 Quadrupole moment (field-independent basis, Debye-Ang):
   XX=            -16.9335   YY=            -17.4898   ZZ=            -19.1052
   XY=             -3.0848   XZ=              0.0000   YZ=              0.0000
 Traceless Quadrupole moment (field-independent basis, Debye-Ang):
   XX=              0.9093   YY=              0.3530   ZZ=             -1.2624
   XY=             -3.0848   XZ=              0.0000   YZ=              0.0000
 Octapole moment (field-independent basis, Debye-Ang**2):
  XXX=             -2.5866  YYY=              0.0804  ZZZ=              0.0000  XYY=             -4.4303
  XXY=              3.5168  XXZ=              0.0000  XZZ=             -0.3701  YZZ=              0.8165
  YYZ=              0.0000  XYZ=              0.0000
 Hexadecapole moment (field-independent basis, Debye-Ang**3):
 XXXX=            -18.2829 YYYY=            -79.1644 ZZZZ=            -18.5557 XXXY=             -0.8604
 XXXZ=              0.0000 YYYX=             -4.3317 YYYZ=              0.0000 ZZZX=              0.0000
 ZZZY=              0.0000 XXYY=            -15.1320 XXZZ=             -6.4024 YYZZ=            -18.3260
 XXYZ=              0.0000 YYXZ=              0.0000 ZZXY=              0.3552
 N-N= 5.125227801212D+01 E-N=-1.375649513153D+03  KE= 5.350140794961D+02
 Symmetry A'   KE= 4.841588490558D+02
 Symmetry A"   KE= 5.085523044027D+01
 No NMR shielding tensors so no spin-rotation constants.
 Leave Link  601 at Wed May 26 14:45:45 2021, MaxMem=   33554432 cpu:       0.1
 (Enter /home/emil/gauss09/g09/l9999.exe)
 1\1\GINC-KONG-SRV\SP\RHF\6-31G\Cl1H1O1\EMIL\26-May-2021\0\\#P HF/6-31G
 \\HOCl\\0,1\O\H,1,0.96210675\Cl,1,1.68836334,2,103.43649285\\Version=E
 M64L-G09RevB.01\State=1-A'\HF=-534.7879644\RMSD=5.581e-09\Dipole=0.175
 2497,0.,0.8498809\Quadrupole=-0.7518648,-0.9385306,1.6903955,0.,-1.952
 3219,0.\PG=CS [SG(Cl1H1O1)]\\@


 WE ARE REACHING THE STAGE WHERE THE PROBLEMS WE MUST SOLVE ARE 
 GOING TO BECOME INSOLUBLE WITHOUT COMPUTERS.
 I DO NOT FEAR COMPUTERS.  I FEAR THE LACK OF THEM.

                                   -- ISSAC ASIMOV
 Job cpu time:  0 days  0 hours  0 minutes  0.9 seconds.
 File lengths (MBytes):  RWF=      5 Int=      0 D2E=      0 Chk=      1 Scr=      1
 Normal termination of Gaussian 09 at Wed May 26 14:45:45 2021.
