 Entering Gaussian System, Link 0=g09
 Input=NH2.com
 Output=NH2.log
 Initial command:
 /home/emil/gauss09/g09/l1.exe /home/emil/scratch/g09/Gau-10070.inp -scrdir=/home/emil/scratch/g09/
 Entering Link 1 = /home/emil/gauss09/g09/l1.exe PID=     10072.
  
 Copyright (c) 1988,1990,1992,1993,1995,1998,2003,2009,2010,
            Gaussian, Inc.  All Rights Reserved.
  
 This is part of the Gaussian(R) 09 program.  It is based on
 the Gaussian(R) 03 system (copyright 2003, Gaussian, Inc.),
 the Gaussian(R) 98 system (copyright 1998, Gaussian, Inc.),
 the Gaussian(R) 94 system (copyright 1995, Gaussian, Inc.),
 the Gaussian 92(TM) system (copyright 1992, Gaussian, Inc.),
 the Gaussian 90(TM) system (copyright 1990, Gaussian, Inc.),
 the Gaussian 88(TM) system (copyright 1988, Gaussian, Inc.),
 the Gaussian 86(TM) system (copyright 1986, Carnegie Mellon
 University), and the Gaussian 82(TM) system (copyright 1983,
 Carnegie Mellon University). Gaussian is a federally registered
 trademark of Gaussian, Inc.
  
 This software contains proprietary and confidential information,
 including trade secrets, belonging to Gaussian, Inc.
  
 This software is provided under written license and may be
 used, copied, transmitted, or stored only in accord with that
 written license.
  
 The following legend is applicable only to US Government
 contracts under FAR:
  
                    RESTRICTED RIGHTS LEGEND
  
 Use, reproduction and disclosure by the US Government is
 subject to restrictions as set forth in subparagraphs (a)
 and (c) of the Commercial Computer Software - Restricted
 Rights clause in FAR 52.227-19.
  
 Gaussian, Inc.
 340 Quinnipiac St., Bldg. 40, Wallingford CT 06492
  
  
 ---------------------------------------------------------------
 Warning -- This program may not be used in any manner that
 competes with the business of Gaussian, Inc. or will provide
 assistance to any competitor of Gaussian, Inc.  The licensee
 of this program is prohibited from giving any competitor of
 Gaussian, Inc. access to this program.  By using this program,
 the user acknowledges that Gaussian, Inc. is engaged in the
 business of creating and licensing software in the field of
 computational chemistry and represents and warrants to the
 licensee that it is not a competitor of Gaussian, Inc. and that
 it will not use this program in any manner prohibited above.
 ---------------------------------------------------------------
  

 Cite this work as:
 Gaussian 09, Revision B.01,
 M. J. Frisch, G. W. Trucks, H. B. Schlegel, G. E. Scuseria, 
 M. A. Robb, J. R. Cheeseman, G. Scalmani, V. Barone, B. Mennucci, 
 G. A. Petersson, H. Nakatsuji, M. Caricato, X. Li, H. P. Hratchian, 
 A. F. Izmaylov, J. Bloino, G. Zheng, J. L. Sonnenberg, M. Hada, 
 M. Ehara, K. Toyota, R. Fukuda, J. Hasegawa, M. Ishida, T. Nakajima, 
 Y. Honda, O. Kitao, H. Nakai, T. Vreven, J. A. Montgomery, Jr., 
 J. E. Peralta, F. Ogliaro, M. Bearpark, J. J. Heyd, E. Brothers, 
 K. N. Kudin, V. N. Staroverov, T. Keith, R. Kobayashi, J. Normand, 
 K. Raghavachari, A. Rendell, J. C. Burant, S. S. Iyengar, J. Tomasi, 
 M. Cossi, N. Rega, J. M. Millam, M. Klene, J. E. Knox, J. B. Cross, 
 V. Bakken, C. Adamo, J. Jaramillo, R. Gomperts, R. E. Stratmann, 
 O. Yazyev, A. J. Austin, R. Cammi, C. Pomelli, J. W. Ochterski, 
 R. L. Martin, K. Morokuma, V. G. Zakrzewski, G. A. Voth, 
 P. Salvador, J. J. Dannenberg, S. Dapprich, A. D. Daniels, 
 O. Farkas, J. B. Foresman, J. V. Ortiz, J. Cioslowski, 
 and D. J. Fox, Gaussian, Inc., Wallingford CT, 2010.
 
 ******************************************
 Gaussian 09:  EM64L-G09RevB.01 12-Aug-2010
                26-May-2021 
 ******************************************
 -----------
 #P HF/6-31G
 -----------
 1/38=1/1;
 2/12=2,17=6,18=5,40=1/2;
 3/5=1,6=6,11=9,16=1,25=1,30=1/1,2,3;
 4//1;
 5/5=2,38=5/2;
 6/7=2,8=2,9=2,10=2,28=1/1;
 99/5=1,9=1/99;
 Leave Link    1 at Wed May 26 14:47:30 2021, MaxMem=          0 cpu:       0.0
 (Enter /home/emil/gauss09/g09/l101.exe)
 ---
 NH2
 ---
 Symbolic Z-matrix:
 Charge =  0 Multiplicity = 2
 N
 H                    1    RBH
 H                    1    RBH      2    HBH
       Variables:
  RBH                   1.02405                  
  HBH                 103.15937                  
 
 NAtoms=      3 NQM=      3 NQMF=      0 NMic=      0 NMicF=      0 NTot=      3.
                    Isotopes and Nuclear Properties:
 (Nuclear quadrupole moments (NQMom) in fm**2, nuclear magnetic moments (NMagM)
  in nuclear magnetons)

  Atom         1           2           3
 IAtWgt=          14           1           1
 AtmWgt=  14.0030740   1.0078250   1.0078250
 NucSpn=           2           1           1
 AtZEff=   0.0000000   0.0000000   0.0000000
 NQMom=    2.0440000   0.0000000   0.0000000
 NMagM=    0.4037610   2.7928460   2.7928460
 Leave Link  101 at Wed May 26 14:47:30 2021, MaxMem=   33554432 cpu:       0.1
 (Enter /home/emil/gauss09/g09/l202.exe)
                          Input orientation:                          
 ---------------------------------------------------------------------
 Center     Atomic      Atomic             Coordinates (Angstroms)
 Number     Number       Type             X           Y           Z
 ---------------------------------------------------------------------
      1          7           0        0.000000    0.000000    0.000000
      2          1           0        0.000000    0.000000    1.024047
      3          1           0        0.997157    0.000000   -0.233135
 ---------------------------------------------------------------------
                    Distance matrix (angstroms):
                    1          2          3
     1  N    0.000000
     2  H    1.024047   0.000000
     3  H    1.024047   1.604627   0.000000
 Stoichiometry    H2N(2)
 Framework group  C2V[C2(N),SGV(H2)]
 Deg. of freedom     2
 Full point group                 C2V     NOp   4
 Largest Abelian subgroup         C2V     NOp   4
 Largest concise Abelian subgroup C2      NOp   2
                         Standard orientation:                         
 ---------------------------------------------------------------------
 Center     Atomic      Atomic             Coordinates (Angstroms)
 Number     Number       Type             X           Y           Z
 ---------------------------------------------------------------------
      1          7           0        0.000000    0.000000    0.141415
      2          1           0        0.000000    0.802314   -0.494954
      3          1           0        0.000000   -0.802314   -0.494954
 ---------------------------------------------------------------------
 Rotational constants (GHZ):    708.2525005    389.5055131    251.3015165
 Leave Link  202 at Wed May 26 14:47:30 2021, MaxMem=   33554432 cpu:       0.0
 (Enter /home/emil/gauss09/g09/l301.exe)
 Standard basis: 6-31G (6D, 7F)
 Ernie: Thresh=  0.10000D-02 Tol=  0.10000D-05 Strict=F.
 There are     7 symmetry adapted basis functions of A1  symmetry.
 There are     0 symmetry adapted basis functions of A2  symmetry.
 There are     2 symmetry adapted basis functions of B1  symmetry.
 There are     4 symmetry adapted basis functions of B2  symmetry.
 Integral buffers will be    131072 words long.
 Raffenetti 2 integral format.
 Two-electron integral symmetry is turned on.
    13 basis functions,    30 primitive gaussians,    13 cartesian basis functions
     5 alpha electrons        4 beta electrons
       nuclear repulsion energy         7.5642911774 Hartrees.
 IExCor=    0 DFT=F Ex=HF Corr=None ExCW=0 ScaHFX=  1.000000
 ScaDFX=  1.000000  1.000000  1.000000  1.000000 ScalE2=  1.000000  1.000000
 IRadAn=      0 IRanWt=     -1 IRanGd=            0 ICorTp=0
 NAtoms=    3 NActive=    3 NUniq=    2 SFac= 2.25D+00 NAtFMM=   50 NAOKFM=F Big=F
 Leave Link  301 at Wed May 26 14:47:30 2021, MaxMem=   33554432 cpu:       0.0
 (Enter /home/emil/gauss09/g09/l302.exe)
 NPDir=0 NMtPBC=     1 NCelOv=     1 NCel=       1 NClECP=     1 NCelD=      1
         NCelK=      1 NCelE2=     1 NClLst=     1 CellRange=     0.0.
 One-electron integrals computed using PRISM.
 One-electron integral symmetry used in STVInt
 NBasis=    13 RedAO= T  NBF=     7     0     2     4
 NBsUse=    13 1.00D-06 NBFU=     7     0     2     4
 Leave Link  302 at Wed May 26 14:47:30 2021, MaxMem=   33554432 cpu:       0.1
 (Enter /home/emil/gauss09/g09/l303.exe)
 DipDrv:  MaxL=1.
 Leave Link  303 at Wed May 26 14:47:30 2021, MaxMem=   33554432 cpu:       0.1
 (Enter /home/emil/gauss09/g09/l401.exe)
 Harris functional with IExCor=  205 diagonalized for initial guess.
 ExpMin= 1.61D-01 ExpMax= 4.17D+03 ExpMxC= 6.27D+02 IAcc=1 IRadAn=         1 AccDes= 0.00D+00
 HarFok:  IExCor=  205 AccDes= 0.00D+00 IRadAn=         1 IDoV= 1
 ScaDFX=  1.000000  1.000000  1.000000  1.000000
 FoFCou: FMM=F IPFlag=           0 FMFlag=      100000 FMFlg1=           0
         NFxFlg=           0 DoJE=T BraDBF=F KetDBF=T FulRan=T
         Omega=  0.000000  0.000000  1.000000  0.000000  0.000000 ICntrl=     500 IOpCl=  0
         NMat0=    1 NMatS0=    1 NMatT0=    0 NMatD0=    1 NMtDS0=    0 NMtDT0=    0
         I1Cent=           4 NGrid=           0.
 Petite list used in FoFCou.
 Harris En= -55.5427004718209    
 Initial guess orbital symmetries:
 Alpha Orbitals:
       Occupied  (A1) (A1) (B2) (A1) (B1)
       Virtual   (A1) (B2) (B1) (A1) (B2) (B2) (A1) (A1)
 Beta  Orbitals:
       Occupied  (A1) (A1) (B2) (A1)
       Virtual   (B1) (A1) (B2) (B1) (A1) (B2) (B2) (A1) (A1)
 The electronic state of the initial guess is 2-B1.
 Initial guess <Sx>= 0.0000 <Sy>= 0.0000 <Sz>= 0.5000 <S**2>= 0.7500 S= 0.5000
 Leave Link  401 at Wed May 26 14:47:31 2021, MaxMem=   33554432 cpu:       0.3
 (Enter /home/emil/gauss09/g09/l502.exe)
 UHF open shell SCF:
 Requested convergence on RMS density matrix=1.00D-08 within 128 cycles.
 Requested convergence on MAX density matrix=1.00D-06.
 Requested convergence on             energy=1.00D-06.
 No special actions if energy rises.
 Using DIIS extrapolation, IDIIS=  1040.
 Integral symmetry usage will be decided dynamically.
 Keep R1 and R2 ints in memory in canonical form, NReq=828174.
 IEnd=       19781 IEndB=       19781 NGot=    33554432 MDV=    33543354
 LenX=    33543354 LenY=    33542472
 Symmetry not used in FoFDir.
 MinBra= 0 MaxBra= 1 Meth= 1.
 IRaf=       0 NMat=   1 IRICut=       1 DoRegI=T DoRafI=F ISym2E= 0 JSym2E=0.

 Cycle   1  Pass 1  IDiag  1:
 E= -55.4987397690874    
 DIIS: error= 5.85D-02 at cycle   1 NSaved=   1.
 NSaved= 1 IEnMin= 1 EnMin= -55.4987397690874     IErMin= 1 ErrMin= 5.85D-02
 ErrMax= 5.85D-02 EMaxC= 1.00D-01 BMatC= 1.60D-01 BMatP= 1.60D-01
 IDIUse=3 WtCom= 4.15D-01 WtEn= 5.85D-01
 Coeff-Com:  0.100D+01
 Coeff-En:   0.100D+01
 Coeff:      0.100D+01
 Gap=     0.652 Goal=   None    Shift=    0.000
 Gap=     0.623 Goal=   None    Shift=    0.000
 GapD=    0.623 DampG=2.000 DampE=0.500 DampFc=1.0000 IDamp=-1.
 RMSDP=1.42D-02 MaxDP=8.47D-02              OVMax= 8.70D-02

 Cycle   2  Pass 1  IDiag  1:
 E= -55.5266850697163     Delta-E=       -0.027945300629 Rises=F Damp=F
 DIIS: error= 2.42D-02 at cycle   2 NSaved=   2.
 NSaved= 2 IEnMin= 2 EnMin= -55.5266850697163     IErMin= 2 ErrMin= 2.42D-02
 ErrMax= 2.42D-02 EMaxC= 1.00D-01 BMatC= 2.28D-02 BMatP= 1.60D-01
 IDIUse=3 WtCom= 7.58D-01 WtEn= 2.42D-01
 Coeff-Com:  0.229D+00 0.771D+00
 Coeff-En:   0.000D+00 0.100D+01
 Coeff:      0.173D+00 0.827D+00
 Gap=     0.712 Goal=   None    Shift=    0.000
 Gap=     0.586 Goal=   None    Shift=    0.000
 RMSDP=5.50D-03 MaxDP=3.58D-02 DE=-2.79D-02 OVMax= 1.88D-02

 Cycle   3  Pass 1  IDiag  1:
 E= -55.5316702203329     Delta-E=       -0.004985150617 Rises=F Damp=F
 DIIS: error= 7.16D-03 at cycle   3 NSaved=   3.
 NSaved= 3 IEnMin= 3 EnMin= -55.5316702203329     IErMin= 3 ErrMin= 7.16D-03
 ErrMax= 7.16D-03 EMaxC= 1.00D-01 BMatC= 9.97D-04 BMatP= 2.28D-02
 IDIUse=3 WtCom= 9.28D-01 WtEn= 7.16D-02
 Coeff-Com: -0.352D-01 0.678D-01 0.967D+00
 Coeff-En:   0.000D+00 0.000D+00 0.100D+01
 Coeff:     -0.327D-01 0.630D-01 0.970D+00
 Gap=     0.704 Goal=   None    Shift=    0.000
 Gap=     0.583 Goal=   None    Shift=    0.000
 RMSDP=1.19D-03 MaxDP=8.69D-03 DE=-4.99D-03 OVMax= 9.51D-03

 Cycle   4  Pass 1  IDiag  1:
 E= -55.5320737118667     Delta-E=       -0.000403491534 Rises=F Damp=F
 DIIS: error= 2.10D-03 at cycle   4 NSaved=   4.
 NSaved= 4 IEnMin= 4 EnMin= -55.5320737118667     IErMin= 4 ErrMin= 2.10D-03
 ErrMax= 2.10D-03 EMaxC= 1.00D-01 BMatC= 1.64D-04 BMatP= 9.97D-04
 IDIUse=3 WtCom= 9.79D-01 WtEn= 2.10D-02
 Coeff-Com:  0.191D-01-0.108D+00-0.811D+00 0.190D+01
 Coeff-En:   0.000D+00 0.000D+00 0.000D+00 0.100D+01
 Coeff:      0.187D-01-0.106D+00-0.794D+00 0.188D+01
 Gap=     0.707 Goal=   None    Shift=    0.000
 Gap=     0.582 Goal=   None    Shift=    0.000
 RMSDP=1.12D-03 MaxDP=6.96D-03 DE=-4.03D-04 OVMax= 6.98D-03

 Cycle   5  Pass 1  IDiag  1:
 E= -55.5322188464196     Delta-E=       -0.000145134553 Rises=F Damp=F
 DIIS: error= 8.16D-04 at cycle   5 NSaved=   5.
 NSaved= 5 IEnMin= 5 EnMin= -55.5322188464196     IErMin= 5 ErrMin= 8.16D-04
 ErrMax= 8.16D-04 EMaxC= 1.00D-01 BMatC= 1.92D-05 BMatP= 1.64D-04
 IDIUse=3 WtCom= 9.92D-01 WtEn= 8.16D-03
 Coeff-Com: -0.115D-01 0.837D-01 0.544D+00-0.159D+01 0.197D+01
 Coeff-En:   0.000D+00 0.000D+00 0.000D+00 0.000D+00 0.100D+01
 Coeff:     -0.114D-01 0.830D-01 0.540D+00-0.158D+01 0.197D+01
 Gap=     0.708 Goal=   None    Shift=    0.000
 Gap=     0.581 Goal=   None    Shift=    0.000
 RMSDP=6.02D-04 MaxDP=2.95D-03 DE=-1.45D-04 OVMax= 3.17D-03

 Cycle   6  Pass 1  IDiag  1:
 E= -55.5322421514867     Delta-E=       -0.000023305067 Rises=F Damp=F
 DIIS: error= 1.88D-04 at cycle   6 NSaved=   6.
 NSaved= 6 IEnMin= 6 EnMin= -55.5322421514867     IErMin= 6 ErrMin= 1.88D-04
 ErrMax= 1.88D-04 EMaxC= 1.00D-01 BMatC= 1.41D-06 BMatP= 1.92D-05
 IDIUse=3 WtCom= 9.98D-01 WtEn= 1.88D-03
 Coeff-Com:  0.627D-02-0.494D-01-0.315D+00 0.956D+00-0.144D+01 0.184D+01
 Coeff-En:   0.000D+00 0.000D+00 0.000D+00 0.000D+00 0.000D+00 0.100D+01
 Coeff:      0.626D-02-0.493D-01-0.314D+00 0.954D+00-0.144D+01 0.184D+01
 Gap=     0.708 Goal=   None    Shift=    0.000
 Gap=     0.581 Goal=   None    Shift=    0.000
 RMSDP=2.10D-04 MaxDP=7.85D-04 DE=-2.33D-05 OVMax= 1.24D-03

 Cycle   7  Pass 1  IDiag  1:
 E= -55.5322439777263     Delta-E=       -0.000001826240 Rises=F Damp=F
 DIIS: error= 4.19D-05 at cycle   7 NSaved=   7.
 NSaved= 7 IEnMin= 7 EnMin= -55.5322439777263     IErMin= 7 ErrMin= 4.19D-05
 ErrMax= 4.19D-05 EMaxC= 1.00D-01 BMatC= 4.87D-08 BMatP= 1.41D-06
 IDIUse=1 WtCom= 1.00D+00 WtEn= 0.00D+00
 Coeff-Com: -0.290D-02 0.229D-01 0.148D+00-0.454D+00 0.707D+00-0.103D+01
 Coeff-Com:  0.160D+01
 Coeff:     -0.290D-02 0.229D-01 0.148D+00-0.454D+00 0.707D+00-0.103D+01
 Coeff:      0.160D+01
 Gap=     0.708 Goal=   None    Shift=    0.000
 Gap=     0.581 Goal=   None    Shift=    0.000
 RMSDP=3.11D-05 MaxDP=1.22D-04 DE=-1.83D-06 OVMax= 1.85D-04

 Cycle   8  Pass 1  IDiag  1:
 E= -55.5322440226649     Delta-E=       -0.000000044939 Rises=F Damp=F
 DIIS: error= 7.12D-06 at cycle   8 NSaved=   8.
 NSaved= 8 IEnMin= 8 EnMin= -55.5322440226649     IErMin= 8 ErrMin= 7.12D-06
 ErrMax= 7.12D-06 EMaxC= 1.00D-01 BMatC= 1.75D-09 BMatP= 4.87D-08
 IDIUse=1 WtCom= 1.00D+00 WtEn= 0.00D+00
 Coeff-Com:  0.837D-03-0.661D-02-0.433D-01 0.133D+00-0.212D+00 0.322D+00
 Coeff-Com: -0.644D+00 0.145D+01
 Coeff:      0.837D-03-0.661D-02-0.433D-01 0.133D+00-0.212D+00 0.322D+00
 Coeff:     -0.644D+00 0.145D+01
 Gap=     0.708 Goal=   None    Shift=    0.000
 Gap=     0.581 Goal=   None    Shift=    0.000
 RMSDP=5.49D-06 MaxDP=2.58D-05 DE=-4.49D-08 OVMax= 3.48D-05

 Cycle   9  Pass 1  IDiag  1:
 E= -55.5322440241223     Delta-E=       -0.000000001457 Rises=F Damp=F
 DIIS: error= 1.26D-06 at cycle   9 NSaved=   9.
 NSaved= 9 IEnMin= 9 EnMin= -55.5322440241223     IErMin= 9 ErrMin= 1.26D-06
 ErrMax= 1.26D-06 EMaxC= 1.00D-01 BMatC= 6.10D-11 BMatP= 1.75D-09
 IDIUse=1 WtCom= 1.00D+00 WtEn= 0.00D+00
 Coeff-Com: -0.202D-03 0.160D-02 0.106D-01-0.328D-01 0.531D-01-0.840D-01
 Coeff-Com:  0.189D+00-0.570D+00 0.143D+01
 Coeff:     -0.202D-03 0.160D-02 0.106D-01-0.328D-01 0.531D-01-0.840D-01
 Coeff:      0.189D+00-0.570D+00 0.143D+01
 Gap=     0.708 Goal=   None    Shift=    0.000
 Gap=     0.581 Goal=   None    Shift=    0.000
 RMSDP=9.19D-07 MaxDP=3.17D-06 DE=-1.46D-09 OVMax= 5.91D-06

 Cycle  10  Pass 1  IDiag  1:
 E= -55.5322440241728     Delta-E=       -0.000000000051 Rises=F Damp=F
 DIIS: error= 3.34D-07 at cycle  10 NSaved=  10.
 NSaved=10 IEnMin=10 EnMin= -55.5322440241728     IErMin=10 ErrMin= 3.34D-07
 ErrMax= 3.34D-07 EMaxC= 1.00D-01 BMatC= 1.89D-12 BMatP= 6.10D-11
 IDIUse=1 WtCom= 1.00D+00 WtEn= 0.00D+00
 Coeff-Com:  0.226D-04-0.183D-03-0.124D-02 0.392D-02-0.669D-02 0.113D-01
 Coeff-Com: -0.297D-01 0.110D+00-0.413D+00 0.132D+01
 Coeff:      0.226D-04-0.183D-03-0.124D-02 0.392D-02-0.669D-02 0.113D-01
 Coeff:     -0.297D-01 0.110D+00-0.413D+00 0.132D+01
 Gap=     0.708 Goal=   None    Shift=    0.000
 Gap=     0.581 Goal=   None    Shift=    0.000
 RMSDP=1.66D-07 MaxDP=9.73D-07 DE=-5.05D-11 OVMax= 1.19D-06

 Cycle  11  Pass 1  IDiag  1:
 E= -55.5322440241743     Delta-E=       -0.000000000001 Rises=F Damp=F
 DIIS: error= 6.20D-08 at cycle  11 NSaved=  11.
 NSaved=11 IEnMin=11 EnMin= -55.5322440241743     IErMin=11 ErrMin= 6.20D-08
 ErrMax= 6.20D-08 EMaxC= 1.00D-01 BMatC= 9.37D-14 BMatP= 1.89D-12
 IDIUse=1 WtCom= 1.00D+00 WtEn= 0.00D+00
 Coeff-Com: -0.225D-05 0.193D-04 0.146D-03-0.483D-03 0.935D-03-0.179D-02
 Coeff-Com:  0.575D-02-0.256D-01 0.120D+00-0.542D+00 0.144D+01
 Coeff:     -0.225D-05 0.193D-04 0.146D-03-0.483D-03 0.935D-03-0.179D-02
 Coeff:      0.575D-02-0.256D-01 0.120D+00-0.542D+00 0.144D+01
 Gap=     0.708 Goal=   None    Shift=    0.000
 Gap=     0.581 Goal=   None    Shift=    0.000
 RMSDP=3.28D-08 MaxDP=2.21D-07 DE=-1.49D-12 OVMax= 2.39D-07

 Cycle  12  Pass 1  IDiag  1:
 E= -55.5322440241744     Delta-E=        0.000000000000 Rises=F Damp=F
 DIIS: error= 1.40D-08 at cycle  12 NSaved=  12.
 NSaved=12 IEnMin=12 EnMin= -55.5322440241744     IErMin=12 ErrMin= 1.40D-08
 ErrMax= 1.40D-08 EMaxC= 1.00D-01 BMatC= 4.10D-15 BMatP= 9.37D-14
 IDIUse=1 WtCom= 1.00D+00 WtEn= 0.00D+00
 Coeff-Com:  0.140D-06-0.145D-05-0.150D-04 0.540D-04-0.127D-03 0.278D-03
 Coeff-Com: -0.102D-02 0.508D-02-0.261D-01 0.135D+00-0.553D+00 0.144D+01
 Coeff:      0.140D-06-0.145D-05-0.150D-04 0.540D-04-0.127D-03 0.278D-03
 Coeff:     -0.102D-02 0.508D-02-0.261D-01 0.135D+00-0.553D+00 0.144D+01
 Gap=     0.708 Goal=   None    Shift=    0.000
 Gap=     0.581 Goal=   None    Shift=    0.000
 RMSDP=8.93D-09 MaxDP=6.44D-08 DE=-7.82D-14 OVMax= 5.37D-08

 SCF Done:  E(UHF) =  -55.5322440242     A.U. after   12 cycles
             Convg  =    0.8928D-08             -V/T =  1.9999
 <Sx>= 0.0000 <Sy>= 0.0000 <Sz>= 0.5000 <S**2>= 0.7568 S= 0.5034
 <L.S>= 0.000000000000E+00
 KE= 5.553542272317D+01 PE=-1.456165347857D+02 EE= 2.698457686098D+01
 Annihilation of the first spin contaminant:
 S**2 before annihilation     0.7568,   after     0.7500
 Leave Link  502 at Wed May 26 14:47:31 2021, MaxMem=   33554432 cpu:       0.1
 (Enter /home/emil/gauss09/g09/l601.exe)
 Copying SCF densities to generalized density rwf, IOpCl= 1 IROHF=0.

 **********************************************************************

            Population analysis using the SCF density.

 **********************************************************************

 Orbital symmetries:
 Alpha Orbitals:
       Occupied  (A1) (A1) (B2) (B1) (A1)
       Virtual   (A1) (B2) (B1) (B2) (A1) (A1) (B2) (A1)
 Beta  Orbitals:
       Occupied  (A1) (A1) (B2) (A1)
       Virtual   (B1) (A1) (B2) (B2) (A1) (B1) (A1) (B2) (A1)
 The electronic state is 2-B1.
 Alpha  occ. eigenvalues --  -15.60022  -1.17659  -0.64705  -0.50903  -0.49526
 Alpha virt. eigenvalues --    0.21278   0.29942   0.87940   0.91877   0.96684
 Alpha virt. eigenvalues --    1.14909   1.19167   1.32863
  Beta  occ. eigenvalues --  -15.56748  -1.05357  -0.62077  -0.44199
  Beta virt. eigenvalues --    0.13855   0.22782   0.31168   0.92067   0.99295
  Beta virt. eigenvalues --    1.05501   1.16283   1.21141   1.37541
          Condensed to atoms (all electrons):
              1          2          3
     1  N    7.009445   0.277270   0.277270
     2  H    0.277270   0.486689  -0.045951
     3  H    0.277270  -0.045951   0.486689
 Mulliken atomic charges:
              1
     1  N   -0.563984
     2  H    0.281992
     3  H    0.281992
 Sum of Mulliken atomic charges =   0.00000
 Mulliken charges with hydrogens summed into heavy atoms:
              1
     1  N    0.000000
 Sum of Mulliken charges with hydrogens summed into heavy atoms =   0.00000
          Atomic-Atomic Spin Densities.
              1          2          3
     1  N    1.202777  -0.021847  -0.021847
     2  H   -0.021847  -0.066511   0.008817
     3  H   -0.021847   0.008817  -0.066511
 Mulliken atomic spin densities:
              1
     1  N    1.159082
     2  H   -0.079541
     3  H   -0.079541
 Sum of Mulliken atomic spin densities =   1.00000
 Electronic spatial extent (au):  <R**2>=             21.7702
 Charge=              0.0000 electrons
 Dipole moment (field-independent basis, Debye):
    X=              0.0000    Y=              0.0000    Z=             -2.4646  Tot=              2.4646
 Quadrupole moment (field-independent basis, Debye-Ang):
   XX=             -6.9391   YY=             -5.5466   ZZ=             -7.5865
   XY=              0.0000   XZ=              0.0000   YZ=              0.0000
 Traceless Quadrupole moment (field-independent basis, Debye-Ang):
   XX=             -0.2484   YY=              1.1442   ZZ=             -0.8958
   XY=              0.0000   XZ=              0.0000   YZ=              0.0000
 Octapole moment (field-independent basis, Debye-Ang**2):
  XXX=              0.0000  YYY=              0.0000  ZZZ=             -2.2397  XYY=              0.0000
  XXY=              0.0000  XXZ=             -0.4980  XZZ=              0.0000  YZZ=              0.0000
  YYZ=             -1.2219  XYZ=              0.0000
 Hexadecapole moment (field-independent basis, Debye-Ang**3):
 XXXX=             -5.6820 YYYY=             -9.1125 ZZZZ=             -9.7540 XXXY=              0.0000
 XXXZ=              0.0000 YYYX=              0.0000 YYYZ=              0.0000 ZZZX=              0.0000
 ZZZY=              0.0000 XXYY=             -2.6710 XXZZ=             -2.5962 YYZZ=             -2.8486
 XXYZ=              0.0000 YYXZ=              0.0000 ZZXY=              0.0000
 N-N= 7.564291177381D+00 E-N=-2.144342209310D+02  KE= 8.229169648472D+01
 Symmetry A1   KE= 7.667597476253D+01
 Symmetry A2   KE= 0.000000000000D+00
 Symmetry B1   KE= 1.746846671173D+00
 Symmetry B2   KE= 3.868875051022D+00
                          Isotropic Fermi Contact Couplings
        Atom                 a.u.       MegaHertz       Gauss      10(-4) cm-1
     1  N(14)              0.22787      73.62580      26.27152      24.55892
     2  H(1)              -0.03040    -135.87974     -48.48527     -45.32460
     3  H(1)              -0.03040    -135.87974     -48.48527     -45.32460
 --------------------------------------------------------
       Center         ----  Spin Dipole Couplings  ----
                      3XX-RR        3YY-RR        3ZZ-RR
 --------------------------------------------------------
     1   Atom        1.994286     -0.970661     -1.023626
     2   Atom       -0.036163      0.046649     -0.010486
     3   Atom       -0.036163      0.046649     -0.010486
 --------------------------------------------------------
                        XY            XZ            YZ
 --------------------------------------------------------
     1   Atom        0.000000      0.000000      0.000000
     2   Atom        0.000000      0.000000     -0.121080
     3   Atom        0.000000      0.000000      0.121080
 --------------------------------------------------------


 ---------------------------------------------------------------------------------
              Anisotropic Spin Dipole Couplings in Principal Axis System
 ---------------------------------------------------------------------------------

       Atom             a.u.   MegaHertz   Gauss  10(-4) cm-1        Axes

              Baa    -1.0236   -39.479   -14.087   -13.169  0.0000  0.0000  1.0000
     1 N(14)  Bbb    -0.9707   -37.436   -13.358   -12.487  0.0000  1.0000  0.0000
              Bcc     1.9943    76.915    27.445    25.656  1.0000  0.0000  0.0000
 
              Baa    -0.1063   -56.729   -20.242   -18.923  0.0000  0.6206  0.7841
     2 H(1)   Bbb    -0.0362   -19.295    -6.885    -6.436  1.0000  0.0000  0.0000
              Bcc     0.1425    76.024    27.127    25.359  0.0000  0.7841 -0.6206
 
              Baa    -0.1063   -56.729   -20.242   -18.923  0.0000 -0.6206  0.7841
     3 H(1)   Bbb    -0.0362   -19.295    -6.885    -6.436  1.0000  0.0000  0.0000
              Bcc     0.1425    76.024    27.127    25.359  0.0000  0.7841  0.6206
 

 ---------------------------------------------------------------------------------

 No NMR shielding tensors so no spin-rotation constants.
 Leave Link  601 at Wed May 26 14:47:31 2021, MaxMem=   33554432 cpu:       0.2
 (Enter /home/emil/gauss09/g09/l9999.exe)
 1\1\GINC-KONG-SRV\SP\UHF\6-31G\H2N1(2)\EMIL\26-May-2021\0\\#P HF/6-31G
 \\NH2\\0,2\N\H,1,1.02404748\H,1,1.02404748,2,103.15937043\\Version=EM6
 4L-G09RevB.01\State=2-B1\HF=-55.532244\S2=0.756843\S2-1=0.\S2A=0.75003
 \RMSD=8.928e-09\Dipole=0.7597047,0.,0.6025732\Quadrupole=-0.0803178,-0
 .1846476,0.2649654,0.,-0.738416,0.\PG=C02V [C2(N1),SGV(H2)]\\@


 KINETICS       FACT
 ---------  =  -------
 MECHANISM     FICTION
 Job cpu time:  0 days  0 hours  0 minutes  0.9 seconds.
 File lengths (MBytes):  RWF=      5 Int=      0 D2E=      0 Chk=      1 Scr=      1
 Normal termination of Gaussian 09 at Wed May 26 14:47:31 2021.
