 Entering Gaussian System, Link 0=g09
 Input=Si2H6.com
 Output=Si2H6.log
 Initial command:
 /home/emil/gauss09/g09/l1.exe /home/emil/scratch/g09/Gau-10086.inp -scrdir=/home/emil/scratch/g09/
 Entering Link 1 = /home/emil/gauss09/g09/l1.exe PID=     10088.
  
 Copyright (c) 1988,1990,1992,1993,1995,1998,2003,2009,2010,
            Gaussian, Inc.  All Rights Reserved.
  
 This is part of the Gaussian(R) 09 program.  It is based on
 the Gaussian(R) 03 system (copyright 2003, Gaussian, Inc.),
 the Gaussian(R) 98 system (copyright 1998, Gaussian, Inc.),
 the Gaussian(R) 94 system (copyright 1995, Gaussian, Inc.),
 the Gaussian 92(TM) system (copyright 1992, Gaussian, Inc.),
 the Gaussian 90(TM) system (copyright 1990, Gaussian, Inc.),
 the Gaussian 88(TM) system (copyright 1988, Gaussian, Inc.),
 the Gaussian 86(TM) system (copyright 1986, Carnegie Mellon
 University), and the Gaussian 82(TM) system (copyright 1983,
 Carnegie Mellon University). Gaussian is a federally registered
 trademark of Gaussian, Inc.
  
 This software contains proprietary and confidential information,
 including trade secrets, belonging to Gaussian, Inc.
  
 This software is provided under written license and may be
 used, copied, transmitted, or stored only in accord with that
 written license.
  
 The following legend is applicable only to US Government
 contracts under FAR:
  
                    RESTRICTED RIGHTS LEGEND
  
 Use, reproduction and disclosure by the US Government is
 subject to restrictions as set forth in subparagraphs (a)
 and (c) of the Commercial Computer Software - Restricted
 Rights clause in FAR 52.227-19.
  
 Gaussian, Inc.
 340 Quinnipiac St., Bldg. 40, Wallingford CT 06492
  
  
 ---------------------------------------------------------------
 Warning -- This program may not be used in any manner that
 competes with the business of Gaussian, Inc. or will provide
 assistance to any competitor of Gaussian, Inc.  The licensee
 of this program is prohibited from giving any competitor of
 Gaussian, Inc. access to this program.  By using this program,
 the user acknowledges that Gaussian, Inc. is engaged in the
 business of creating and licensing software in the field of
 computational chemistry and represents and warrants to the
 licensee that it is not a competitor of Gaussian, Inc. and that
 it will not use this program in any manner prohibited above.
 ---------------------------------------------------------------
  

 Cite this work as:
 Gaussian 09, Revision B.01,
 M. J. Frisch, G. W. Trucks, H. B. Schlegel, G. E. Scuseria, 
 M. A. Robb, J. R. Cheeseman, G. Scalmani, V. Barone, B. Mennucci, 
 G. A. Petersson, H. Nakatsuji, M. Caricato, X. Li, H. P. Hratchian, 
 A. F. Izmaylov, J. Bloino, G. Zheng, J. L. Sonnenberg, M. Hada, 
 M. Ehara, K. Toyota, R. Fukuda, J. Hasegawa, M. Ishida, T. Nakajima, 
 Y. Honda, O. Kitao, H. Nakai, T. Vreven, J. A. Montgomery, Jr., 
 J. E. Peralta, F. Ogliaro, M. Bearpark, J. J. Heyd, E. Brothers, 
 K. N. Kudin, V. N. Staroverov, T. Keith, R. Kobayashi, J. Normand, 
 K. Raghavachari, A. Rendell, J. C. Burant, S. S. Iyengar, J. Tomasi, 
 M. Cossi, N. Rega, J. M. Millam, M. Klene, J. E. Knox, J. B. Cross, 
 V. Bakken, C. Adamo, J. Jaramillo, R. Gomperts, R. E. Stratmann, 
 O. Yazyev, A. J. Austin, R. Cammi, C. Pomelli, J. W. Ochterski, 
 R. L. Martin, K. Morokuma, V. G. Zakrzewski, G. A. Voth, 
 P. Salvador, J. J. Dannenberg, S. Dapprich, A. D. Daniels, 
 O. Farkas, J. B. Foresman, J. V. Ortiz, J. Cioslowski, 
 and D. J. Fox, Gaussian, Inc., Wallingford CT, 2010.
 
 ******************************************
 Gaussian 09:  EM64L-G09RevB.01 12-Aug-2010
                26-May-2021 
 ******************************************
 -----------
 #P HF/6-31G
 -----------
 1/38=1/1;
 2/12=2,17=6,18=5,40=1/2;
 3/5=1,6=6,11=9,16=1,25=1,30=1/1,2,3;
 4//1;
 5/5=2,38=5/2;
 6/7=2,8=2,9=2,10=2,28=1/1;
 99/5=1,9=1/99;
 Leave Link    1 at Wed May 26 14:53:00 2021, MaxMem=          0 cpu:       0.0
 (Enter /home/emil/gauss09/g09/l101.exe)
 -----
 Si2H6
 -----
 Symbolic Z-matrix:
 Charge =  0 Multiplicity = 1
 Si
 Si                   1    R
 H                    1    SIH      2    SICC
 H                    1    SIH      2    SICC     3     120.     0
 H                    1    SIH      2    SICC     3    -120.     0
 H                    2    SIH      1    SICC     3     180.     0
 H                    2    SIH      1    SICC     6     120.     0
 H                    2    SIH      1    SICC     6    -120.     0
       Variables:
  SICC                110.36185                  
  SIH                   1.48063                  
  R                     2.34061                  
 
 NAtoms=      8 NQM=      8 NQMF=      0 NMic=      0 NMicF=      0 NTot=      8.
                    Isotopes and Nuclear Properties:
 (Nuclear quadrupole moments (NQMom) in fm**2, nuclear magnetic moments (NMagM)
  in nuclear magnetons)

  Atom         1           2           3           4           5           6           7           8
 IAtWgt=          28          28           1           1           1           1           1           1
 AtmWgt=  27.9769284  27.9769284   1.0078250   1.0078250   1.0078250   1.0078250   1.0078250   1.0078250
 NucSpn=           0           0           1           1           1           1           1           1
 AtZEff=   0.0000000   0.0000000   0.0000000   0.0000000   0.0000000   0.0000000   0.0000000   0.0000000
 NQMom=    0.0000000   0.0000000   0.0000000   0.0000000   0.0000000   0.0000000   0.0000000   0.0000000
 NMagM=    0.0000000   0.0000000   2.7928460   2.7928460   2.7928460   2.7928460   2.7928460   2.7928460
 Leave Link  101 at Wed May 26 14:53:01 2021, MaxMem=   33554432 cpu:       0.1
 (Enter /home/emil/gauss09/g09/l202.exe)
                          Input orientation:                          
 ---------------------------------------------------------------------
 Center     Atomic      Atomic             Coordinates (Angstroms)
 Number     Number       Type             X           Y           Z
 ---------------------------------------------------------------------
      1         14           0        0.000000    0.000000    0.000000
      2         14           0        0.000000    0.000000    2.340609
      3          1           0        1.388110    0.000000   -0.515181
      4          1           0       -0.694055   -1.202138   -0.515181
      5          1           0       -0.694055    1.202138   -0.515181
      6          1           0       -1.388110    0.000000    2.855791
      7          1           0        0.694055   -1.202138    2.855791
      8          1           0        0.694055    1.202138    2.855791
 ---------------------------------------------------------------------
                    Distance matrix (angstroms):
                    1          2          3          4          5
     1  Si   0.000000
     2  Si   2.340609   0.000000
     3  H    1.480628   3.175278   0.000000
     4  H    1.480628   3.175278   2.404276   0.000000
     5  H    1.480628   3.175278   2.404276   2.404276   0.000000
     6  H    3.175278   1.480628   4.367018   3.645587   3.645587
     7  H    3.175278   1.480628   3.645587   3.645587   4.367018
     8  H    3.175278   1.480628   3.645587   4.367018   3.645587
                    6          7          8
     6  H    0.000000
     7  H    2.404276   0.000000
     8  H    2.404276   2.404276   0.000000
 Stoichiometry    H6Si2
 Framework group  D3D[C3(Si.Si),3SGD(H2)]
 Deg. of freedom     3
 Full point group                 D3D     NOp  12
 Largest Abelian subgroup         C2H     NOp   4
 Largest concise Abelian subgroup C2H     NOp   4
                         Standard orientation:                         
 ---------------------------------------------------------------------
 Center     Atomic      Atomic             Coordinates (Angstroms)
 Number     Number       Type             X           Y           Z
 ---------------------------------------------------------------------
      1         14           0        0.000000    0.000000    1.170305
      2         14           0        0.000000    0.000000   -1.170305
      3          1           0        0.000000    1.388110    1.685486
      4          1           0       -1.202138   -0.694055    1.685486
      5          1           0        1.202138   -0.694055    1.685486
      6          1           0        0.000000   -1.388110   -1.685486
      7          1           0       -1.202138    0.694055   -1.685486
      8          1           0        1.202138    0.694055   -1.685486
 ---------------------------------------------------------------------
 Rotational constants (GHZ):     43.3743800      5.0720763      5.0720763
 Leave Link  202 at Wed May 26 14:53:01 2021, MaxMem=   33554432 cpu:       0.0
 (Enter /home/emil/gauss09/g09/l301.exe)
 Standard basis: 6-31G (6D, 7F)
 Ernie: Thresh=  0.10000D-02 Tol=  0.10000D-05 Strict=F.
 There are    14 symmetry adapted basis functions of AG  symmetry.
 There are     5 symmetry adapted basis functions of BG  symmetry.
 There are     5 symmetry adapted basis functions of AU  symmetry.
 There are    14 symmetry adapted basis functions of BU  symmetry.
 Integral buffers will be    131072 words long.
 Raffenetti 1 integral format.
 Two-electron integral symmetry is turned on.
    38 basis functions,   116 primitive gaussians,    38 cartesian basis functions
    17 alpha electrons       17 beta electrons
       nuclear repulsion energy        90.8884467883 Hartrees.
 IExCor=    0 DFT=F Ex=HF Corr=None ExCW=0 ScaHFX=  1.000000
 ScaDFX=  1.000000  1.000000  1.000000  1.000000 ScalE2=  1.000000  1.000000
 IRadAn=      0 IRanWt=     -1 IRanGd=            0 ICorTp=0
 NAtoms=    8 NActive=    8 NUniq=    2 SFac= 4.00D+00 NAtFMM=   50 NAOKFM=F Big=F
 Leave Link  301 at Wed May 26 14:53:01 2021, MaxMem=   33554432 cpu:       0.0
 (Enter /home/emil/gauss09/g09/l302.exe)
 NPDir=0 NMtPBC=     1 NCelOv=     1 NCel=       1 NClECP=     1 NCelD=      1
         NCelK=      1 NCelE2=     1 NClLst=     1 CellRange=     0.0.
 One-electron integrals computed using PRISM.
 One-electron integral symmetry used in STVInt
 NBasis=    38 RedAO= T  NBF=    14     5     5    14
 NBsUse=    38 1.00D-06 NBFU=    14     5     5    14
 Leave Link  302 at Wed May 26 14:53:01 2021, MaxMem=   33554432 cpu:       0.1
 (Enter /home/emil/gauss09/g09/l303.exe)
 DipDrv:  MaxL=1.
 Leave Link  303 at Wed May 26 14:53:01 2021, MaxMem=   33554432 cpu:       0.1
 (Enter /home/emil/gauss09/g09/l401.exe)
 Harris functional with IExCor=  205 diagonalized for initial guess.
 ExpMin= 7.78D-02 ExpMax= 1.61D+04 ExpMxC= 2.43D+03 IAcc=2 IRadAn=         0 AccDes= 0.00D+00
 HarFok:  IExCor=  205 AccDes= 0.00D+00 IRadAn=         0 IDoV= 1
 ScaDFX=  1.000000  1.000000  1.000000  1.000000
 FoFCou: FMM=F IPFlag=           0 FMFlag=      100000 FMFlg1=           0
         NFxFlg=           0 DoJE=T BraDBF=F KetDBF=T FulRan=T
         Omega=  0.000000  0.000000  1.000000  0.000000  0.000000 ICntrl=     500 IOpCl=  0
         NMat0=    1 NMatS0=    1 NMatT0=    0 NMatD0=    1 NMtDS0=    0 NMtDT0=    0
         I1Cent=           4 NGrid=           0.
 Petite list used in FoFCou.
 Harris En= -580.699620024946    
 Initial guess orbital symmetries:
       Occupied  (A2U) (A1G) (A2U) (A1G) (EG) (EG) (EU) (EU) (A1G)
                 (A2U) (A1G) (A2U) (EU) (EU) (EG) (EG) (A1G)
       Virtual   (A2U) (EU) (EU) (A1G) (EG) (EG) (A2U) (A1G) (EU)
                 (EU) (EG) (EG) (A2U) (A1G) (A2U) (EG) (EG) (A2U)
                 (EU) (EU) (A1G)
 The electronic state of the initial guess is 1-A1G.
 Leave Link  401 at Wed May 26 14:53:01 2021, MaxMem=   33554432 cpu:       0.3
 (Enter /home/emil/gauss09/g09/l502.exe)
 Closed shell SCF:
 Requested convergence on RMS density matrix=1.00D-08 within 128 cycles.
 Requested convergence on MAX density matrix=1.00D-06.
 Requested convergence on             energy=1.00D-06.
 No special actions if energy rises.
 Using DIIS extrapolation, IDIIS=  1040.
 Integral symmetry usage will be decided dynamically.
 Keep R1 ints in memory in canonical form, NReq=1098267.
 IEnd=       23342 IEndB=       23342 NGot=    33554432 MDV=    33274274
 LenX=    33274274 LenY=    33272389
 Symmetry not used in FoFDir.
 MinBra= 0 MaxBra= 1 Meth= 1.
 IRaf=       0 NMat=   1 IRICut=       1 DoRegI=T DoRafI=F ISym2E= 0 JSym2E=0.

 Cycle   1  Pass 1  IDiag  1:
 E= -581.185241054648    
 DIIS: error= 3.07D-02 at cycle   1 NSaved=   1.
 NSaved= 1 IEnMin= 1 EnMin= -581.185241054648     IErMin= 1 ErrMin= 3.07D-02
 ErrMax= 3.07D-02 EMaxC= 1.00D-01 BMatC= 4.98D-02 BMatP= 4.98D-02
 IDIUse=3 WtCom= 6.93D-01 WtEn= 3.07D-01
 Coeff-Com:  0.100D+01
 Coeff-En:   0.100D+01
 Coeff:      0.100D+01
 Gap=     0.535 Goal=   None    Shift=    0.000
 GapD=    0.535 DampG=2.000 DampE=0.500 DampFc=1.0000 IDamp=-1.
 RMSDP=5.62D-03 MaxDP=6.11D-02              OVMax= 1.67D-02

 Cycle   2  Pass 1  IDiag  1:
 E= -581.214412426818     Delta-E=       -0.029171372170 Rises=F Damp=F
 DIIS: error= 2.13D-03 at cycle   2 NSaved=   2.
 NSaved= 2 IEnMin= 2 EnMin= -581.214412426818     IErMin= 2 ErrMin= 2.13D-03
 ErrMax= 2.13D-03 EMaxC= 1.00D-01 BMatC= 2.80D-04 BMatP= 4.98D-02
 IDIUse=3 WtCom= 9.79D-01 WtEn= 2.13D-02
 Coeff-Com: -0.544D-01 0.105D+01
 Coeff-En:   0.000D+00 0.100D+01
 Coeff:     -0.532D-01 0.105D+01
 Gap=     0.537 Goal=   None    Shift=    0.000
 RMSDP=9.82D-04 MaxDP=5.90D-03 DE=-2.92D-02 OVMax= 1.35D-03

 Cycle   3  Pass 1  IDiag  1:
 E= -581.214797630402     Delta-E=       -0.000385203584 Rises=F Damp=F
 DIIS: error= 3.25D-04 at cycle   3 NSaved=   3.
 NSaved= 3 IEnMin= 3 EnMin= -581.214797630402     IErMin= 3 ErrMin= 3.25D-04
 ErrMax= 3.25D-04 EMaxC= 1.00D-01 BMatC= 5.81D-06 BMatP= 2.80D-04
 IDIUse=3 WtCom= 9.97D-01 WtEn= 3.25D-03
 Coeff-Com:  0.350D-02-0.867D-01 0.108D+01
 Coeff-En:   0.000D+00 0.000D+00 0.100D+01
 Coeff:      0.349D-02-0.864D-01 0.108D+01
 Gap=     0.536 Goal=   None    Shift=    0.000
 RMSDP=1.98D-04 MaxDP=1.51D-03 DE=-3.85D-04 OVMax= 1.14D-03

 Cycle   4  Pass 1  IDiag  1:
 E= -581.214814003648     Delta-E=       -0.000016373246 Rises=F Damp=F
 DIIS: error= 9.90D-05 at cycle   4 NSaved=   4.
 NSaved= 4 IEnMin= 4 EnMin= -581.214814003648     IErMin= 4 ErrMin= 9.90D-05
 ErrMax= 9.90D-05 EMaxC= 1.00D-01 BMatC= 3.18D-07 BMatP= 5.81D-06
 IDIUse=1 WtCom= 1.00D+00 WtEn= 0.00D+00
 Coeff-Com:  0.102D-02-0.310D-01-0.544D-01 0.108D+01
 Coeff:      0.102D-02-0.310D-01-0.544D-01 0.108D+01
 Gap=     0.537 Goal=   None    Shift=    0.000
 RMSDP=5.92D-05 MaxDP=3.82D-04 DE=-1.64D-05 OVMax= 2.46D-04

 Cycle   5  Pass 1  IDiag  1:
 E= -581.214815025189     Delta-E=       -0.000001021542 Rises=F Damp=F
 DIIS: error= 1.49D-05 at cycle   5 NSaved=   5.
 NSaved= 5 IEnMin= 5 EnMin= -581.214815025189     IErMin= 5 ErrMin= 1.49D-05
 ErrMax= 1.49D-05 EMaxC= 1.00D-01 BMatC= 8.36D-09 BMatP= 3.18D-07
 IDIUse=1 WtCom= 1.00D+00 WtEn= 0.00D+00
 Coeff-Com: -0.184D-03 0.700D-02-0.227D-01-0.163D+00 0.118D+01
 Coeff:     -0.184D-03 0.700D-02-0.227D-01-0.163D+00 0.118D+01
 Gap=     0.537 Goal=   None    Shift=    0.000
 RMSDP=1.01D-05 MaxDP=5.80D-05 DE=-1.02D-06 OVMax= 6.50D-05

 Cycle   6  Pass 1  IDiag  1:
 E= -581.214815057849     Delta-E=       -0.000000032660 Rises=F Damp=F
 DIIS: error= 3.13D-06 at cycle   6 NSaved=   6.
 NSaved= 6 IEnMin= 6 EnMin= -581.214815057849     IErMin= 6 ErrMin= 3.13D-06
 ErrMax= 3.13D-06 EMaxC= 1.00D-01 BMatC= 1.98D-10 BMatP= 8.36D-09
 IDIUse=1 WtCom= 1.00D+00 WtEn= 0.00D+00
 Coeff-Com:  0.318D-04-0.135D-02 0.764D-02 0.221D-01-0.316D+00 0.129D+01
 Coeff:      0.318D-04-0.135D-02 0.764D-02 0.221D-01-0.316D+00 0.129D+01
 Gap=     0.537 Goal=   None    Shift=    0.000
 RMSDP=1.62D-06 MaxDP=1.66D-05 DE=-3.27D-08 OVMax= 5.24D-06

 Cycle   7  Pass 1  IDiag  1:
 E= -581.214815058601     Delta-E=       -0.000000000752 Rises=F Damp=F
 DIIS: error= 2.04D-07 at cycle   7 NSaved=   7.
 NSaved= 7 IEnMin= 7 EnMin= -581.214815058601     IErMin= 7 ErrMin= 2.04D-07
 ErrMax= 2.04D-07 EMaxC= 1.00D-01 BMatC= 1.93D-12 BMatP= 1.98D-10
 IDIUse=1 WtCom= 1.00D+00 WtEn= 0.00D+00
 Coeff-Com: -0.197D-05 0.112D-03-0.904D-03-0.109D-02 0.352D-01-0.225D+00
 Coeff-Com:  0.119D+01
 Coeff:     -0.197D-05 0.112D-03-0.904D-03-0.109D-02 0.352D-01-0.225D+00
 Coeff:      0.119D+01
 Gap=     0.537 Goal=   None    Shift=    0.000
 RMSDP=1.30D-07 MaxDP=1.67D-06 DE=-7.52D-10 OVMax= 5.82D-07

 Cycle   8  Pass 1  IDiag  1:
 E= -581.214815058608     Delta-E=       -0.000000000007 Rises=F Damp=F
 DIIS: error= 1.45D-08 at cycle   8 NSaved=   8.
 NSaved= 8 IEnMin= 8 EnMin= -581.214815058608     IErMin= 8 ErrMin= 1.45D-08
 ErrMax= 1.45D-08 EMaxC= 1.00D-01 BMatC= 1.05D-14 BMatP= 1.93D-12
 IDIUse=1 WtCom= 1.00D+00 WtEn= 0.00D+00
 Coeff-Com:  0.232D-06-0.143D-04 0.137D-03 0.582D-04-0.492D-02 0.357D-01
 Coeff-Com: -0.223D+00 0.119D+01
 Coeff:      0.232D-06-0.143D-04 0.137D-03 0.582D-04-0.492D-02 0.357D-01
 Coeff:     -0.223D+00 0.119D+01
 Gap=     0.537 Goal=   None    Shift=    0.000
 RMSDP=9.38D-09 MaxDP=7.17D-08 DE=-7.05D-12 OVMax= 2.60D-08

 SCF Done:  E(RHF) =  -581.214815059     A.U. after    8 cycles
             Convg  =    0.9380D-08             -V/T =  1.9991
 KE= 5.817547805681D+02 PE=-1.567778186868D+03 EE= 3.139201444526D+02
 Leave Link  502 at Wed May 26 14:53:01 2021, MaxMem=   33554432 cpu:       0.2
 (Enter /home/emil/gauss09/g09/l601.exe)
 Copying SCF densities to generalized density rwf, IOpCl= 0 IROHF=0.

 **********************************************************************

            Population analysis using the SCF density.

 **********************************************************************

 Orbital symmetries:
       Occupied  (A2U) (A1G) (A1G) (A2U) (A1G) (EU) (EU) (EG) (EG)
                 (A2U) (A1G) (A2U) (EU) (EU) (EG) (EG) (A1G)
       Virtual   (A2U) (EU) (EU) (EG) (EG) (A1G) (A2U) (A1G) (EU)
                 (EU) (EG) (EG) (A2U) (A1G) (A2U) (EG) (EG) (A2U)
                 (A1G) (EU) (EU)
 The electronic state is 1-A1G.
 Alpha  occ. eigenvalues --  -68.76825 -68.76823  -6.14011  -6.13998  -4.24489
 Alpha  occ. eigenvalues --   -4.24469  -4.24469  -4.24461  -4.24461  -4.24424
 Alpha  occ. eigenvalues --   -0.77528  -0.69187  -0.50073  -0.50073  -0.46767
 Alpha  occ. eigenvalues --   -0.46767  -0.40331
 Alpha virt. eigenvalues --    0.13337   0.14797   0.14797   0.21140   0.21140
 Alpha virt. eigenvalues --    0.22161   0.27777   0.29420   0.36594   0.36594
 Alpha virt. eigenvalues --    0.40286   0.40286   0.41529   0.43443   0.57531
 Alpha virt. eigenvalues --    1.20963   1.20963   1.21486   1.25938   1.26110
 Alpha virt. eigenvalues --    1.26110
          Condensed to atoms (all electrons):
              1          2          3          4          5          6
     1  Si  12.155469   0.351892   0.350095   0.350095   0.350095  -0.024371
     2  Si   0.351892  12.155469  -0.024371  -0.024371  -0.024371   0.350095
     3  H    0.350095  -0.024371   0.883966  -0.019084  -0.019084   0.000332
     4  H    0.350095  -0.024371  -0.019084   0.883966  -0.019084  -0.000017
     5  H    0.350095  -0.024371  -0.019084  -0.019084   0.883966  -0.000017
     6  H   -0.024371   0.350095   0.000332  -0.000017  -0.000017   0.883966
     7  H   -0.024371   0.350095  -0.000017  -0.000017   0.000332  -0.019084
     8  H   -0.024371   0.350095  -0.000017   0.000332  -0.000017  -0.019084
              7          8
     1  Si  -0.024371  -0.024371
     2  Si   0.350095   0.350095
     3  H   -0.000017  -0.000017
     4  H   -0.000017   0.000332
     5  H    0.000332  -0.000017
     6  H   -0.019084  -0.019084
     7  H    0.883966  -0.019084
     8  H   -0.019084   0.883966
 Mulliken atomic charges:
              1
     1  Si   0.515466
     2  Si   0.515466
     3  H   -0.171822
     4  H   -0.171822
     5  H   -0.171822
     6  H   -0.171822
     7  H   -0.171822
     8  H   -0.171822
 Sum of Mulliken atomic charges =   0.00000
 Mulliken charges with hydrogens summed into heavy atoms:
              1
     1  Si   0.000000
     2  Si   0.000000
 Sum of Mulliken charges with hydrogens summed into heavy atoms =   0.00000
 Electronic spatial extent (au):  <R**2>=            312.9058
 Charge=              0.0000 electrons
 Dipole moment (field-independent basis, Debye):
    X=              0.0000    Y=              0.0000    Z=              0.0000  Tot=              0.0000
 Quadrupole moment (field-independent basis, Debye-Ang):
   XX=            -32.6450   YY=            -32.6450   ZZ=            -33.9782
   XY=              0.0000   XZ=              0.0000   YZ=              0.0000
 Traceless Quadrupole moment (field-independent basis, Debye-Ang):
   XX=              0.4444   YY=              0.4444   ZZ=             -0.8888
   XY=              0.0000   XZ=              0.0000   YZ=              0.0000
 Octapole moment (field-independent basis, Debye-Ang**2):
  XXX=              0.0000  YYY=              0.0000  ZZZ=              0.0000  XYY=              0.0000
  XXY=              0.0000  XXZ=              0.0000  XZZ=              0.0000  YZZ=              0.0000
  YYZ=              0.0000  XYZ=              0.0000
 Hexadecapole moment (field-independent basis, Debye-Ang**3):
 XXXX=            -85.9657 YYYY=            -85.9657 ZZZZ=           -362.5939 XXXY=              0.0000
 XXXZ=              0.0000 YYYX=              0.0000 YYYZ=             -4.5048 ZZZX=              0.0000
 ZZZY=              0.0000 XXYY=            -28.6552 XXZZ=            -81.4600 YYZZ=            -81.4600
 XXYZ=              4.5048 YYXZ=              0.0000 ZZXY=              0.0000
 N-N= 9.088844678834D+01 E-N=-1.567778187048D+03  KE= 5.817547805681D+02
 Symmetry AG   KE= 2.659984154998D+02
 Symmetry BG   KE= 2.608859479944D+01
 Symmetry AU   KE= 2.602229540409D+01
 Symmetry BU   KE= 2.636454748647D+02
 No NMR shielding tensors so no spin-rotation constants.
 Leave Link  601 at Wed May 26 14:53:01 2021, MaxMem=   33554432 cpu:       0.1
 (Enter /home/emil/gauss09/g09/l9999.exe)
 1\1\GINC-KONG-SRV\SP\RHF\6-31G\H6Si2\EMIL\26-May-2021\0\\#P HF/6-31G\\
 Si2H6\\0,1\Si\Si,1,2.34060939\H,1,1.4806283,2,110.36184621\H,1,1.48062
 83,2,110.36184621,3,120.,0\H,1,1.4806283,2,110.36184621,3,-120.,0\H,2,
 1.4806283,1,110.36184621,3,180.,0\H,2,1.4806283,1,110.36184621,6,120.,
 0\H,2,1.4806283,1,110.36184621,6,-120.,0\\Version=EM64L-G09RevB.01\Sta
 te=1-A1G\HF=-581.2148151\RMSD=9.380e-09\Dipole=0.,0.,0.\Quadrupole=0.3
 30397,0.330397,-0.660794,0.,0.,0.\PG=D03D [C3(Si1.Si1),3SGD(H2)]\\@


 QUHEN THE CAUSS IS TAKEN AWAY THE EFFECT WANISHETH.
 -- PROVERBS AND REASONS OF THE YEAR 1585
           AS REPRINTED IN PAISLEY MAGAZINE 1828.
 Job cpu time:  0 days  0 hours  0 minutes  1.0 seconds.
 File lengths (MBytes):  RWF=      5 Int=      0 D2E=      0 Chk=      1 Scr=      1
 Normal termination of Gaussian 09 at Wed May 26 14:53:01 2021.
