 Entering Gaussian System, Link 0=g09
 Input=SiCl4.com
 Output=SiCl4.log
 Initial command:
 /home/emil/gauss09/g09/l1.exe /home/emil/scratch/g09/Gau-10101.inp -scrdir=/home/emil/scratch/g09/
 Entering Link 1 = /home/emil/gauss09/g09/l1.exe PID=     10103.
  
 Copyright (c) 1988,1990,1992,1993,1995,1998,2003,2009,2010,
            Gaussian, Inc.  All Rights Reserved.
  
 This is part of the Gaussian(R) 09 program.  It is based on
 the Gaussian(R) 03 system (copyright 2003, Gaussian, Inc.),
 the Gaussian(R) 98 system (copyright 1998, Gaussian, Inc.),
 the Gaussian(R) 94 system (copyright 1995, Gaussian, Inc.),
 the Gaussian 92(TM) system (copyright 1992, Gaussian, Inc.),
 the Gaussian 90(TM) system (copyright 1990, Gaussian, Inc.),
 the Gaussian 88(TM) system (copyright 1988, Gaussian, Inc.),
 the Gaussian 86(TM) system (copyright 1986, Carnegie Mellon
 University), and the Gaussian 82(TM) system (copyright 1983,
 Carnegie Mellon University). Gaussian is a federally registered
 trademark of Gaussian, Inc.
  
 This software contains proprietary and confidential information,
 including trade secrets, belonging to Gaussian, Inc.
  
 This software is provided under written license and may be
 used, copied, transmitted, or stored only in accord with that
 written license.
  
 The following legend is applicable only to US Government
 contracts under FAR:
  
                    RESTRICTED RIGHTS LEGEND
  
 Use, reproduction and disclosure by the US Government is
 subject to restrictions as set forth in subparagraphs (a)
 and (c) of the Commercial Computer Software - Restricted
 Rights clause in FAR 52.227-19.
  
 Gaussian, Inc.
 340 Quinnipiac St., Bldg. 40, Wallingford CT 06492
  
  
 ---------------------------------------------------------------
 Warning -- This program may not be used in any manner that
 competes with the business of Gaussian, Inc. or will provide
 assistance to any competitor of Gaussian, Inc.  The licensee
 of this program is prohibited from giving any competitor of
 Gaussian, Inc. access to this program.  By using this program,
 the user acknowledges that Gaussian, Inc. is engaged in the
 business of creating and licensing software in the field of
 computational chemistry and represents and warrants to the
 licensee that it is not a competitor of Gaussian, Inc. and that
 it will not use this program in any manner prohibited above.
 ---------------------------------------------------------------
  

 Cite this work as:
 Gaussian 09, Revision B.01,
 M. J. Frisch, G. W. Trucks, H. B. Schlegel, G. E. Scuseria, 
 M. A. Robb, J. R. Cheeseman, G. Scalmani, V. Barone, B. Mennucci, 
 G. A. Petersson, H. Nakatsuji, M. Caricato, X. Li, H. P. Hratchian, 
 A. F. Izmaylov, J. Bloino, G. Zheng, J. L. Sonnenberg, M. Hada, 
 M. Ehara, K. Toyota, R. Fukuda, J. Hasegawa, M. Ishida, T. Nakajima, 
 Y. Honda, O. Kitao, H. Nakai, T. Vreven, J. A. Montgomery, Jr., 
 J. E. Peralta, F. Ogliaro, M. Bearpark, J. J. Heyd, E. Brothers, 
 K. N. Kudin, V. N. Staroverov, T. Keith, R. Kobayashi, J. Normand, 
 K. Raghavachari, A. Rendell, J. C. Burant, S. S. Iyengar, J. Tomasi, 
 M. Cossi, N. Rega, J. M. Millam, M. Klene, J. E. Knox, J. B. Cross, 
 V. Bakken, C. Adamo, J. Jaramillo, R. Gomperts, R. E. Stratmann, 
 O. Yazyev, A. J. Austin, R. Cammi, C. Pomelli, J. W. Ochterski, 
 R. L. Martin, K. Morokuma, V. G. Zakrzewski, G. A. Voth, 
 P. Salvador, J. J. Dannenberg, S. Dapprich, A. D. Daniels, 
 O. Farkas, J. B. Foresman, J. V. Ortiz, J. Cioslowski, 
 and D. J. Fox, Gaussian, Inc., Wallingford CT, 2010.
 
 ******************************************
 Gaussian 09:  EM64L-G09RevB.01 12-Aug-2010
                26-May-2021 
 ******************************************
 -----------
 #P HF/6-31G
 -----------
 1/38=1/1;
 2/12=2,17=6,18=5,40=1/2;
 3/5=1,6=6,11=9,16=1,25=1,30=1/1,2,3;
 4//1;
 5/5=2,38=5/2;
 6/7=2,8=2,9=2,10=2,28=1/1;
 99/5=1,9=1/99;
 Leave Link    1 at Wed May 26 14:55:46 2021, MaxMem=          0 cpu:       0.0
 (Enter /home/emil/gauss09/g09/l101.exe)
 -----
 SiCl4
 -----
 Symbolic Z-matrix:
 Charge =  0 Multiplicity = 1
 Si
 Cl                   1    r
 Cl                   1    r        2     109.47122 
 Cl                   1    r        2     109.47122  3     109.47122  1
 Cl                   1    r        2     109.47122  3     109.47122  -1
       Variables:
  r                     2.0232                   
 
     5 tetrahedral angles replaced.
 NAtoms=      5 NQM=      5 NQMF=      0 NMic=      0 NMicF=      0 NTot=      5.
    5 tetrahedral angles replaced.
                    Isotopes and Nuclear Properties:
 (Nuclear quadrupole moments (NQMom) in fm**2, nuclear magnetic moments (NMagM)
  in nuclear magnetons)

  Atom         1           2           3           4           5
 IAtWgt=          28          35          35          35          35
 AtmWgt=  27.9769284  34.9688527  34.9688527  34.9688527  34.9688527
 NucSpn=           0           3           3           3           3
 AtZEff=   0.0000000   0.0000000   0.0000000   0.0000000   0.0000000
 NQMom=    0.0000000  -8.1650000  -8.1650000  -8.1650000  -8.1650000
 NMagM=    0.0000000   0.8218740   0.8218740   0.8218740   0.8218740
 Leave Link  101 at Wed May 26 14:55:46 2021, MaxMem=   33554432 cpu:       0.2
 (Enter /home/emil/gauss09/g09/l202.exe)
                          Input orientation:                          
 ---------------------------------------------------------------------
 Center     Atomic      Atomic             Coordinates (Angstroms)
 Number     Number       Type             X           Y           Z
 ---------------------------------------------------------------------
      1         14           0        0.000000    0.000000    0.000000
      2         17           0        0.000000    0.000000    2.023200
      3         17           0        1.907491    0.000000   -0.674400
      4         17           0       -0.953746    1.651936   -0.674400
      5         17           0       -0.953746   -1.651936   -0.674400
 ---------------------------------------------------------------------
                    Distance matrix (angstroms):
                    1          2          3          4          5
     1  Si   0.000000
     2  Cl   2.023200   0.000000
     3  Cl   2.023200   3.303872   0.000000
     4  Cl   2.023200   3.303872   3.303872   0.000000
     5  Cl   2.023200   3.303872   3.303872   3.303872   0.000000
 Stoichiometry    Cl4Si
 Framework group  TD[O(Si),4C3(Cl)]
 Deg. of freedom     1
 Full point group                 TD      NOp  24
 Largest Abelian subgroup         D2      NOp   4
 Largest concise Abelian subgroup D2      NOp   4
                         Standard orientation:                         
 ---------------------------------------------------------------------
 Center     Atomic      Atomic             Coordinates (Angstroms)
 Number     Number       Type             X           Y           Z
 ---------------------------------------------------------------------
      1         14           0        0.000000    0.000000    0.000000
      2         17           0        1.168095    1.168095    1.168095
      3         17           0       -1.168095   -1.168095    1.168095
      4         17           0        1.168095   -1.168095   -1.168095
      5         17           0       -1.168095    1.168095   -1.168095
 ---------------------------------------------------------------------
 Rotational constants (GHZ):      1.3240045      1.3240045      1.3240045
 Leave Link  202 at Wed May 26 14:55:46 2021, MaxMem=   33554432 cpu:       0.0
 (Enter /home/emil/gauss09/g09/l301.exe)
 Standard basis: 6-31G (6D, 7F)
 Ernie: Thresh=  0.10000D-02 Tol=  0.10000D-05 Strict=F.
 There are    17 symmetry adapted basis functions of A   symmetry.
 There are    16 symmetry adapted basis functions of B1  symmetry.
 There are    16 symmetry adapted basis functions of B2  symmetry.
 There are    16 symmetry adapted basis functions of B3  symmetry.
 Integral buffers will be    131072 words long.
 Raffenetti 1 integral format.
 Two-electron integral symmetry is turned on.
    65 basis functions,   230 primitive gaussians,    65 cartesian basis functions
    41 alpha electrons       41 beta electrons
       nuclear repulsion energy       526.7326681705 Hartrees.
 IExCor=    0 DFT=F Ex=HF Corr=None ExCW=0 ScaHFX=  1.000000
 ScaDFX=  1.000000  1.000000  1.000000  1.000000 ScalE2=  1.000000  1.000000
 IRadAn=      0 IRanWt=     -1 IRanGd=            0 ICorTp=0
 NAtoms=    5 NActive=    5 NUniq=    2 SFac= 4.00D+00 NAtFMM=   50 NAOKFM=F Big=F
 Leave Link  301 at Wed May 26 14:55:46 2021, MaxMem=   33554432 cpu:       0.1
 (Enter /home/emil/gauss09/g09/l302.exe)
 NPDir=0 NMtPBC=     1 NCelOv=     1 NCel=       1 NClECP=     1 NCelD=      1
         NCelK=      1 NCelE2=     1 NClLst=     1 CellRange=     0.0.
 One-electron integrals computed using PRISM.
 One-electron integral symmetry used in STVInt
 NBasis=    65 RedAO= T  NBF=    17    16    16    16
 NBsUse=    65 1.00D-06 NBFU=    17    16    16    16
 Leave Link  302 at Wed May 26 14:55:47 2021, MaxMem=   33554432 cpu:       0.2
 (Enter /home/emil/gauss09/g09/l303.exe)
 DipDrv:  MaxL=1.
 Leave Link  303 at Wed May 26 14:55:47 2021, MaxMem=   33554432 cpu:       0.0
 (Enter /home/emil/gauss09/g09/l401.exe)
 Harris functional with IExCor=  205 diagonalized for initial guess.
 ExpMin= 7.78D-02 ExpMax= 2.52D+04 ExpMxC= 3.78D+03 IAcc=2 IRadAn=         0 AccDes= 0.00D+00
 HarFok:  IExCor=  205 AccDes= 0.00D+00 IRadAn=         0 IDoV= 1
 ScaDFX=  1.000000  1.000000  1.000000  1.000000
 FoFCou: FMM=F IPFlag=           0 FMFlag=      100000 FMFlg1=           0
         NFxFlg=           0 DoJE=T BraDBF=F KetDBF=T FulRan=T
         Omega=  0.000000  0.000000  1.000000  0.000000  0.000000 ICntrl=     500 IOpCl=  0
         NMat0=    1 NMatS0=    1 NMatT0=    0 NMatD0=    1 NMtDS0=    0 NMtDT0=    0
         I1Cent=           4 NGrid=           0.
 Petite list used in FoFCou.
 Harris En= -2124.63811931973    
 Initial guess orbital symmetries:
       Occupied  (A1) (T2) (T2) (T2) (A1) (A1) (T2) (T2) (T2) (T2)
                 (T2) (T2) (A1) (T2) (T2) (T2) (T1) (T1) (T1) (E)
                 (E) (A1) (T2) (T2) (T2) (A1) (T2) (T2) (T2) (A1)
                 (T2) (T2) (T2) (E) (E) (T2) (T2) (T2) (T1) (T1)
                 (T1)
       Virtual   (A1) (T2) (T2) (T2) (A1) (T2) (T2) (T2) (T2) (T2)
                 (T2) (E) (E) (A1) (T1) (T1) (T1) (T2) (T2) (T2)
                 (T2) (T2) (T2) (A1)
 The electronic state of the initial guess is 1-A1.
 Leave Link  401 at Wed May 26 14:55:47 2021, MaxMem=   33554432 cpu:       0.2
 (Enter /home/emil/gauss09/g09/l502.exe)
 Closed shell SCF:
 Requested convergence on RMS density matrix=1.00D-08 within 128 cycles.
 Requested convergence on MAX density matrix=1.00D-06.
 Requested convergence on             energy=1.00D-06.
 No special actions if energy rises.
 Using DIIS extrapolation, IDIIS=  1040.
 Integral symmetry usage will be decided dynamically.
 Keep R1 ints in memory in canonical form, NReq=3133950.
 IEnd=       32351 IEndB=       32351 NGot=    33554432 MDV=    31241399
 LenX=    31241399 LenY=    31236733
 Symmetry not used in FoFDir.
 MinBra= 0 MaxBra= 1 Meth= 1.
 IRaf=       0 NMat=   1 IRICut=       1 DoRegI=T DoRafI=F ISym2E= 0 JSym2E=0.

 Cycle   1  Pass 1  IDiag  1:
 E= -2126.77006521436    
 DIIS: error= 4.38D-02 at cycle   1 NSaved=   1.
 NSaved= 1 IEnMin= 1 EnMin= -2126.77006521436     IErMin= 1 ErrMin= 4.38D-02
 ErrMax= 4.38D-02 EMaxC= 1.00D-01 BMatC= 1.91D-01 BMatP= 1.91D-01
 IDIUse=3 WtCom= 5.62D-01 WtEn= 4.38D-01
 Coeff-Com:  0.100D+01
 Coeff-En:   0.100D+01
 Coeff:      0.100D+01
 Gap=     0.530 Goal=   None    Shift=    0.000
 GapD=    0.530 DampG=2.000 DampE=0.500 DampFc=1.0000 IDamp=-1.
 RMSDP=7.33D-03 MaxDP=1.42D-01              OVMax= 0.00D+00

 Cycle   2  Pass 1  IDiag  1:
 E= -2126.84435910062     Delta-E=       -0.074293886260 Rises=F Damp=F
 DIIS: error= 5.53D-03 at cycle   2 NSaved=   2.
 NSaved= 2 IEnMin= 2 EnMin= -2126.84435910062     IErMin= 2 ErrMin= 5.53D-03
 ErrMax= 5.53D-03 EMaxC= 1.00D-01 BMatC= 3.34D-03 BMatP= 1.91D-01
 IDIUse=3 WtCom= 9.45D-01 WtEn= 5.53D-02
 Coeff-Com:  0.303D-01 0.970D+00
 Coeff-En:   0.000D+00 0.100D+01
 Coeff:      0.286D-01 0.971D+00
 Gap=     0.580 Goal=   None    Shift=    0.000
 RMSDP=2.55D-03 MaxDP=4.17D-02 DE=-7.43D-02 OVMax= 0.00D+00

 Cycle   3  Pass 1  IDiag  1:
 E= -2126.84890125399     Delta-E=       -0.004542153369 Rises=F Damp=F
 DIIS: error= 1.88D-03 at cycle   3 NSaved=   3.
 NSaved= 3 IEnMin= 3 EnMin= -2126.84890125399     IErMin= 3 ErrMin= 1.88D-03
 ErrMax= 1.88D-03 EMaxC= 1.00D-01 BMatC= 3.52D-04 BMatP= 3.34D-03
 IDIUse=3 WtCom= 9.81D-01 WtEn= 1.88D-02
 Coeff-Com: -0.609D-02 0.224D+00 0.782D+00
 Coeff-En:   0.000D+00 0.000D+00 0.100D+01
 Coeff:     -0.598D-02 0.220D+00 0.786D+00
 Gap=     0.571 Goal=   None    Shift=    0.000
 RMSDP=5.32D-04 MaxDP=1.09D-02 DE=-4.54D-03 OVMax= 0.00D+00

 Cycle   4  Pass 1  IDiag  1:
 E= -2126.84940997831     Delta-E=       -0.000508724317 Rises=F Damp=F
 DIIS: error= 2.65D-04 at cycle   4 NSaved=   4.
 NSaved= 4 IEnMin= 4 EnMin= -2126.84940997831     IErMin= 4 ErrMin= 2.65D-04
 ErrMax= 2.65D-04 EMaxC= 1.00D-01 BMatC= 6.37D-06 BMatP= 3.52D-04
 IDIUse=3 WtCom= 9.97D-01 WtEn= 2.65D-03
 Coeff-Com:  0.920D-03-0.848D-01-0.255D+00 0.134D+01
 Coeff-En:   0.000D+00 0.000D+00 0.000D+00 0.100D+01
 Coeff:      0.917D-03-0.846D-01-0.254D+00 0.134D+01
 Gap=     0.572 Goal=   None    Shift=    0.000
 RMSDP=1.81D-04 MaxDP=1.18D-03 DE=-5.09D-04 OVMax= 0.00D+00

 Cycle   5  Pass 1  IDiag  1:
 E= -2126.84943546315     Delta-E=       -0.000025484837 Rises=F Damp=F
 DIIS: error= 3.43D-05 at cycle   5 NSaved=   5.
 NSaved= 5 IEnMin= 5 EnMin= -2126.84943546315     IErMin= 5 ErrMin= 3.43D-05
 ErrMax= 3.43D-05 EMaxC= 1.00D-01 BMatC= 1.86D-07 BMatP= 6.37D-06
 IDIUse=1 WtCom= 1.00D+00 WtEn= 0.00D+00
 Coeff-Com:  0.527D-03-0.905D-02-0.317D-01-0.273D-01 0.107D+01
 Coeff:      0.527D-03-0.905D-02-0.317D-01-0.273D-01 0.107D+01
 Gap=     0.573 Goal=   None    Shift=    0.000
 RMSDP=3.36D-05 MaxDP=2.23D-04 DE=-2.55D-05 OVMax= 0.00D+00

 Cycle   6  Pass 1  IDiag  1:
 E= -2126.84943607810     Delta-E=       -0.000000614948 Rises=F Damp=F
 DIIS: error= 6.91D-06 at cycle   6 NSaved=   6.
 NSaved= 6 IEnMin= 6 EnMin= -2126.84943607810     IErMin= 6 ErrMin= 6.91D-06
 ErrMax= 6.91D-06 EMaxC= 1.00D-01 BMatC= 3.09D-09 BMatP= 1.86D-07
 IDIUse=1 WtCom= 1.00D+00 WtEn= 0.00D+00
 Coeff-Com: -0.113D-03 0.318D-02 0.111D-01-0.268D-01-0.152D+00 0.116D+01
 Coeff:     -0.113D-03 0.318D-02 0.111D-01-0.268D-01-0.152D+00 0.116D+01
 Gap=     0.573 Goal=   None    Shift=    0.000
 RMSDP=4.31D-06 MaxDP=6.10D-05 DE=-6.15D-07 OVMax= 0.00D+00

 Cycle   7  Pass 1  IDiag  1:
 E= -2126.84943608582     Delta-E=       -0.000000007724 Rises=F Damp=F
 DIIS: error= 8.37D-07 at cycle   7 NSaved=   7.
 NSaved= 7 IEnMin= 7 EnMin= -2126.84943608582     IErMin= 7 ErrMin= 8.37D-07
 ErrMax= 8.37D-07 EMaxC= 1.00D-01 BMatC= 3.53D-11 BMatP= 3.09D-09
 IDIUse=1 WtCom= 1.00D+00 WtEn= 0.00D+00
 Coeff-Com:  0.561D-05-0.220D-03-0.741D-03 0.350D-02 0.158D-03-0.140D+00
 Coeff-Com:  0.114D+01
 Coeff:      0.561D-05-0.220D-03-0.741D-03 0.350D-02 0.158D-03-0.140D+00
 Coeff:      0.114D+01
 Gap=     0.573 Goal=   None    Shift=    0.000
 RMSDP=3.66D-07 MaxDP=6.81D-06 DE=-7.72D-09 OVMax= 0.00D+00

 Cycle   8  Pass 1  IDiag  1:
 E= -2126.84943608589     Delta-E=       -0.000000000073 Rises=F Damp=F
 DIIS: error= 5.94D-08 at cycle   8 NSaved=   8.
 NSaved= 8 IEnMin= 8 EnMin= -2126.84943608589     IErMin= 8 ErrMin= 5.94D-08
 ErrMax= 5.94D-08 EMaxC= 1.00D-01 BMatC= 4.66D-13 BMatP= 3.53D-11
 IDIUse=1 WtCom= 1.00D+00 WtEn= 0.00D+00
 Coeff-Com: -0.643D-06 0.301D-04 0.101D-03-0.618D-03 0.814D-03 0.279D-01
 Coeff-Com: -0.293D+00 0.127D+01
 Coeff:     -0.643D-06 0.301D-04 0.101D-03-0.618D-03 0.814D-03 0.279D-01
 Coeff:     -0.293D+00 0.127D+01
 Gap=     0.573 Goal=   None    Shift=    0.000
 RMSDP=4.56D-08 MaxDP=3.48D-07 DE=-7.28D-11 OVMax= 0.00D+00

 Cycle   9  Pass 1  IDiag  1:
 E= -2126.84943608588     Delta-E=        0.000000000012 Rises=F Damp=F
 DIIS: error= 5.72D-09 at cycle   9 NSaved=   9.
 NSaved= 9 IEnMin= 8 EnMin= -2126.84943608589     IErMin= 9 ErrMin= 5.72D-09
 ErrMax= 5.72D-09 EMaxC= 1.00D-01 BMatC= 1.56D-15 BMatP= 4.66D-13
 IDIUse=1 WtCom= 1.00D+00 WtEn= 0.00D+00
 Coeff-Com:  0.346D-07-0.189D-05-0.731D-05 0.474D-04-0.715D-04-0.233D-02
 Coeff-Com:  0.257D-01-0.147D+00 0.112D+01
 Coeff:      0.346D-07-0.189D-05-0.731D-05 0.474D-04-0.715D-04-0.233D-02
 Coeff:      0.257D-01-0.147D+00 0.112D+01
 Gap=     0.573 Goal=   None    Shift=    0.000
 RMSDP=2.47D-09 MaxDP=4.68D-08 DE= 1.18D-11 OVMax= 0.00D+00

 SCF Done:  E(RHF) =  -2126.84943609     A.U. after    9 cycles
             Convg  =    0.2465D-08             -V/T =  1.9992
 KE= 2.128467081876D+03 PE=-6.117435683295D+03 EE= 1.335386497162D+03
 Leave Link  502 at Wed May 26 14:55:47 2021, MaxMem=   33554432 cpu:       0.3
 (Enter /home/emil/gauss09/g09/l601.exe)
 Copying SCF densities to generalized density rwf, IOpCl= 0 IROHF=0.

 **********************************************************************

            Population analysis using the SCF density.

 **********************************************************************

 Orbital symmetries:
       Occupied  (A1) (T2) (T2) (T2) (A1) (T2) (T2) (T2) (A1) (T2)
                 (T2) (T2) (A1) (T2) (T2) (T2) (T1) (T1) (T1) (E)
                 (E) (A1) (T2) (T2) (T2) (A1) (T2) (T2) (T2) (A1)
                 (T2) (T2) (T2) (E) (E) (T2) (T2) (T2) (T1) (T1)
                 (T1)
       Virtual   (A1) (T2) (T2) (T2) (A1) (T2) (T2) (T2) (E) (E)
                 (T2) (T2) (T2) (A1) (T1) (T1) (T1) (T2) (T2) (T2)
                 (T2) (T2) (T2) (A1)
 The electronic state is 1-A1.
 Alpha  occ. eigenvalues -- -104.86648-104.86646-104.86646-104.86646 -68.99999
 Alpha  occ. eigenvalues --  -10.61195 -10.61195 -10.61195 -10.61195  -8.08038
 Alpha  occ. eigenvalues --   -8.08038  -8.08038  -8.08038  -8.07569  -8.07569
 Alpha  occ. eigenvalues --   -8.07569  -8.07569  -8.07569  -8.07569  -8.07568
 Alpha  occ. eigenvalues --   -8.07568  -6.36583  -4.47027  -4.47027  -4.47027
 Alpha  occ. eigenvalues --   -1.23229  -1.15814  -1.15814  -1.15814  -0.75867
 Alpha  occ. eigenvalues --   -0.62604  -0.62604  -0.62604  -0.54147  -0.54147
 Alpha  occ. eigenvalues --   -0.51681  -0.51681  -0.51681  -0.50119  -0.50119
 Alpha  occ. eigenvalues --   -0.50119
 Alpha virt. eigenvalues --    0.07138   0.13473   0.13473   0.13473   0.23994
 Alpha virt. eigenvalues --    0.33210   0.33210   0.33210   0.56530   0.56530
 Alpha virt. eigenvalues --    0.58093   0.58093   0.58093   0.58257   0.70256
 Alpha virt. eigenvalues --    0.70256   0.70256   0.73434   0.73434   0.73434
 Alpha virt. eigenvalues --    0.82257   0.82257   0.82257   0.99573
          Condensed to atoms (all electrons):
              1          2          3          4          5
     1  Si  12.136502   0.235518   0.235518   0.235518   0.235518
     2  Cl   0.235518  17.203248  -0.069470  -0.069470  -0.069470
     3  Cl   0.235518  -0.069470  17.203248  -0.069470  -0.069470
     4  Cl   0.235518  -0.069470  -0.069470  17.203248  -0.069470
     5  Cl   0.235518  -0.069470  -0.069470  -0.069470  17.203248
 Mulliken atomic charges:
              1
     1  Si   0.921427
     2  Cl  -0.230357
     3  Cl  -0.230357
     4  Cl  -0.230357
     5  Cl  -0.230357
 Sum of Mulliken atomic charges =   0.00000
 Mulliken charges with hydrogens summed into heavy atoms:
              1
     1  Si   0.921427
     2  Cl  -0.230357
     3  Cl  -0.230357
     4  Cl  -0.230357
     5  Cl  -0.230357
 Sum of Mulliken charges with hydrogens summed into heavy atoms =   0.00000
 Electronic spatial extent (au):  <R**2>=           1147.7038
 Charge=              0.0000 electrons
 Dipole moment (field-independent basis, Debye):
    X=              0.0000    Y=              0.0000    Z=              0.0000  Tot=              0.0000
 Quadrupole moment (field-independent basis, Debye-Ang):
   XX=            -68.9144   YY=            -68.9144   ZZ=            -68.9144
   XY=              0.0000   XZ=              0.0000   YZ=              0.0000
 Traceless Quadrupole moment (field-independent basis, Debye-Ang):
   XX=              0.0000   YY=              0.0000   ZZ=              0.0000
   XY=              0.0000   XZ=              0.0000   YZ=              0.0000
 Octapole moment (field-independent basis, Debye-Ang**2):
  XXX=              0.0000  YYY=              0.0000  ZZZ=              0.0000  XYY=              0.0000
  XXY=              0.0000  XXZ=              0.0000  XZZ=              0.0000  YZZ=              0.0000
  YYZ=              0.0000  XYZ=             -4.8439
 Hexadecapole moment (field-independent basis, Debye-Ang**3):
 XXXX=           -506.7990 YYYY=           -506.7990 ZZZZ=           -506.7990 XXXY=              0.0000
 XXXZ=              0.0000 YYYX=              0.0000 YYYZ=              0.0000 ZZZX=              0.0000
 ZZZY=              0.0000 XXYY=           -168.7368 XXZZ=           -168.7368 YYZZ=           -168.7368
 XXYZ=              0.0000 YYXZ=              0.0000 ZZXY=              0.0000
 N-N= 5.267326681705D+02 E-N=-6.117435683351D+03  KE= 2.128467081876D+03
 Symmetry A    KE= 6.712071575131D+02
 Symmetry B1   KE= 4.857533081209D+02
 Symmetry B2   KE= 4.857533081209D+02
 Symmetry B3   KE= 4.857533081209D+02
 No NMR shielding tensors so no spin-rotation constants.
 Leave Link  601 at Wed May 26 14:55:47 2021, MaxMem=   33554432 cpu:       0.1
 (Enter /home/emil/gauss09/g09/l9999.exe)
 1\1\GINC-KONG-SRV\SP\RHF\6-31G\Cl4Si1\EMIL\26-May-2021\0\\#P HF/6-31G\
 \SiCl4\\0,1\Si\Cl,1,2.0232\Cl,1,2.0232,2,109.47122063\Cl,1,2.0232,2,10
 9.47122063,3,109.47122063,1\Cl,1,2.0232,2,109.47122063,3,109.47122063,
 -1\\Version=EM64L-G09RevB.01\State=1-A1\HF=-2126.8494361\RMSD=2.465e-0
 9\Dipole=0.,0.,0.\Quadrupole=0.,0.,0.,0.,0.,0.\PG=TD [O(Si1),4C3(Cl1)]
 \\@


 The earth never tires,
 The earth is rude, silent, incomprehensible at first,
 Nature is rude and incomprehensible at first,
 Be not discouraged, keep on,
 There are divine things well envelop'd,
 I swear to you there are divine things more beautiful than words can tell.
                                 -- Walt Whitman
 Job cpu time:  0 days  0 hours  0 minutes  1.2 seconds.
 File lengths (MBytes):  RWF=      5 Int=      0 D2E=      0 Chk=      1 Scr=      1
 Normal termination of Gaussian 09 at Wed May 26 14:55:47 2021.
