 Entering Gaussian System, Link 0=g09
 Input=SO2.com
 Output=SO2.log
 Initial command:
 /home/emil/gauss09/g09/l1.exe /home/emil/scratch/g09/Gau-10135.inp -scrdir=/home/emil/scratch/g09/
 Entering Link 1 = /home/emil/gauss09/g09/l1.exe PID=     10137.
  
 Copyright (c) 1988,1990,1992,1993,1995,1998,2003,2009,2010,
            Gaussian, Inc.  All Rights Reserved.
  
 This is part of the Gaussian(R) 09 program.  It is based on
 the Gaussian(R) 03 system (copyright 2003, Gaussian, Inc.),
 the Gaussian(R) 98 system (copyright 1998, Gaussian, Inc.),
 the Gaussian(R) 94 system (copyright 1995, Gaussian, Inc.),
 the Gaussian 92(TM) system (copyright 1992, Gaussian, Inc.),
 the Gaussian 90(TM) system (copyright 1990, Gaussian, Inc.),
 the Gaussian 88(TM) system (copyright 1988, Gaussian, Inc.),
 the Gaussian 86(TM) system (copyright 1986, Carnegie Mellon
 University), and the Gaussian 82(TM) system (copyright 1983,
 Carnegie Mellon University). Gaussian is a federally registered
 trademark of Gaussian, Inc.
  
 This software contains proprietary and confidential information,
 including trade secrets, belonging to Gaussian, Inc.
  
 This software is provided under written license and may be
 used, copied, transmitted, or stored only in accord with that
 written license.
  
 The following legend is applicable only to US Government
 contracts under FAR:
  
                    RESTRICTED RIGHTS LEGEND
  
 Use, reproduction and disclosure by the US Government is
 subject to restrictions as set forth in subparagraphs (a)
 and (c) of the Commercial Computer Software - Restricted
 Rights clause in FAR 52.227-19.
  
 Gaussian, Inc.
 340 Quinnipiac St., Bldg. 40, Wallingford CT 06492
  
  
 ---------------------------------------------------------------
 Warning -- This program may not be used in any manner that
 competes with the business of Gaussian, Inc. or will provide
 assistance to any competitor of Gaussian, Inc.  The licensee
 of this program is prohibited from giving any competitor of
 Gaussian, Inc. access to this program.  By using this program,
 the user acknowledges that Gaussian, Inc. is engaged in the
 business of creating and licensing software in the field of
 computational chemistry and represents and warrants to the
 licensee that it is not a competitor of Gaussian, Inc. and that
 it will not use this program in any manner prohibited above.
 ---------------------------------------------------------------
  

 Cite this work as:
 Gaussian 09, Revision B.01,
 M. J. Frisch, G. W. Trucks, H. B. Schlegel, G. E. Scuseria, 
 M. A. Robb, J. R. Cheeseman, G. Scalmani, V. Barone, B. Mennucci, 
 G. A. Petersson, H. Nakatsuji, M. Caricato, X. Li, H. P. Hratchian, 
 A. F. Izmaylov, J. Bloino, G. Zheng, J. L. Sonnenberg, M. Hada, 
 M. Ehara, K. Toyota, R. Fukuda, J. Hasegawa, M. Ishida, T. Nakajima, 
 Y. Honda, O. Kitao, H. Nakai, T. Vreven, J. A. Montgomery, Jr., 
 J. E. Peralta, F. Ogliaro, M. Bearpark, J. J. Heyd, E. Brothers, 
 K. N. Kudin, V. N. Staroverov, T. Keith, R. Kobayashi, J. Normand, 
 K. Raghavachari, A. Rendell, J. C. Burant, S. S. Iyengar, J. Tomasi, 
 M. Cossi, N. Rega, J. M. Millam, M. Klene, J. E. Knox, J. B. Cross, 
 V. Bakken, C. Adamo, J. Jaramillo, R. Gomperts, R. E. Stratmann, 
 O. Yazyev, A. J. Austin, R. Cammi, C. Pomelli, J. W. Ochterski, 
 R. L. Martin, K. Morokuma, V. G. Zakrzewski, G. A. Voth, 
 P. Salvador, J. J. Dannenberg, S. Dapprich, A. D. Daniels, 
 O. Farkas, J. B. Foresman, J. V. Ortiz, J. Cioslowski, 
 and D. J. Fox, Gaussian, Inc., Wallingford CT, 2010.
 
 ******************************************
 Gaussian 09:  EM64L-G09RevB.01 12-Aug-2010
                26-May-2021 
 ******************************************
 -----------
 #P HF/6-31G
 -----------
 1/38=1/1;
 2/12=2,17=6,18=5,40=1/2;
 3/5=1,6=6,11=9,16=1,25=1,30=1/1,2,3;
 4//1;
 5/5=2,38=5/2;
 6/7=2,8=2,9=2,10=2,28=1/1;
 99/5=1,9=1/99;
 Leave Link    1 at Wed May 26 15:03:07 2021, MaxMem=          0 cpu:       0.0
 (Enter /home/emil/gauss09/g09/l101.exe)
 ---
 SO2
 ---
 Symbolic Z-matrix:
 Charge =  0 Multiplicity = 1
 S
 O                    1    SO
 O                    1    SO       2    OSO
       Variables:
  SO                    1.4295                   
  OSO                 119.13639                  
 
 NAtoms=      3 NQM=      3 NQMF=      0 NMic=      0 NMicF=      0 NTot=      3.
                    Isotopes and Nuclear Properties:
 (Nuclear quadrupole moments (NQMom) in fm**2, nuclear magnetic moments (NMagM)
  in nuclear magnetons)

  Atom         1           2           3
 IAtWgt=          32          16          16
 AtmWgt=  31.9720718  15.9949146  15.9949146
 NucSpn=           0           0           0
 AtZEff=   0.0000000   0.0000000   0.0000000
 NQMom=    0.0000000   0.0000000   0.0000000
 NMagM=    0.0000000   0.0000000   0.0000000
 Leave Link  101 at Wed May 26 15:03:07 2021, MaxMem=   33554432 cpu:       0.1
 (Enter /home/emil/gauss09/g09/l202.exe)
                          Input orientation:                          
 ---------------------------------------------------------------------
 Center     Atomic      Atomic             Coordinates (Angstroms)
 Number     Number       Type             X           Y           Z
 ---------------------------------------------------------------------
      1         16           0        0.000000    0.000000    0.000000
      2          8           0        0.000000    0.000000    1.429504
      3          8           0        1.248619    0.000000   -0.696012
 ---------------------------------------------------------------------
                    Distance matrix (angstroms):
                    1          2          3
     1  S    0.000000
     2  O    1.429504   0.000000
     3  O    1.429504   2.465130   0.000000
 Stoichiometry    O2S
 Framework group  C2V[C2(S),SGV(O2)]
 Deg. of freedom     2
 Full point group                 C2V     NOp   4
 Largest Abelian subgroup         C2V     NOp   4
 Largest concise Abelian subgroup C2      NOp   2
                         Standard orientation:                         
 ---------------------------------------------------------------------
 Center     Atomic      Atomic             Coordinates (Angstroms)
 Number     Number       Type             X           Y           Z
 ---------------------------------------------------------------------
      1         16           0        0.000000    0.000000    0.362031
      2          8           0        0.000000    1.232565   -0.362031
      3          8           0        0.000000   -1.232565   -0.362031
 ---------------------------------------------------------------------
 Rotational constants (GHZ):     60.2844017     10.3988593      8.8689883
 Leave Link  202 at Wed May 26 15:03:07 2021, MaxMem=   33554432 cpu:       0.0
 (Enter /home/emil/gauss09/g09/l301.exe)
 Standard basis: 6-31G (6D, 7F)
 Ernie: Thresh=  0.10000D-02 Tol=  0.10000D-05 Strict=F.
 There are    14 symmetry adapted basis functions of A1  symmetry.
 There are     2 symmetry adapted basis functions of A2  symmetry.
 There are     5 symmetry adapted basis functions of B1  symmetry.
 There are    10 symmetry adapted basis functions of B2  symmetry.
 Integral buffers will be    131072 words long.
 Raffenetti 1 integral format.
 Two-electron integral symmetry is turned on.
    31 basis functions,    90 primitive gaussians,    31 cartesian basis functions
    16 alpha electrons       16 beta electrons
       nuclear repulsion energy       108.5052668215 Hartrees.



 Warning!  S  atom    1 may be hypervalent but has no d functions.



 IExCor=    0 DFT=F Ex=HF Corr=None ExCW=0 ScaHFX=  1.000000
 ScaDFX=  1.000000  1.000000  1.000000  1.000000 ScalE2=  1.000000  1.000000
 IRadAn=      0 IRanWt=     -1 IRanGd=            0 ICorTp=0
 NAtoms=    3 NActive=    3 NUniq=    2 SFac= 2.25D+00 NAtFMM=   50 NAOKFM=F Big=F
 Leave Link  301 at Wed May 26 15:03:07 2021, MaxMem=   33554432 cpu:       0.1
 (Enter /home/emil/gauss09/g09/l302.exe)
 NPDir=0 NMtPBC=     1 NCelOv=     1 NCel=       1 NClECP=     1 NCelD=      1
         NCelK=      1 NCelE2=     1 NClLst=     1 CellRange=     0.0.
 One-electron integrals computed using PRISM.
 One-electron integral symmetry used in STVInt
 NBasis=    31 RedAO= T  NBF=    14     2     5    10
 NBsUse=    31 1.00D-06 NBFU=    14     2     5    10
 Leave Link  302 at Wed May 26 15:03:08 2021, MaxMem=   33554432 cpu:       0.2
 (Enter /home/emil/gauss09/g09/l303.exe)
 DipDrv:  MaxL=1.
 Leave Link  303 at Wed May 26 15:03:08 2021, MaxMem=   33554432 cpu:       0.0
 (Enter /home/emil/gauss09/g09/l401.exe)
 Harris functional with IExCor=  205 diagonalized for initial guess.
 ExpMin= 1.17D-01 ExpMax= 2.19D+04 ExpMxC= 3.30D+03 IAcc=1 IRadAn=         1 AccDes= 0.00D+00
 HarFok:  IExCor=  205 AccDes= 0.00D+00 IRadAn=         1 IDoV= 1
 ScaDFX=  1.000000  1.000000  1.000000  1.000000
 FoFCou: FMM=F IPFlag=           0 FMFlag=      100000 FMFlg1=           0
         NFxFlg=           0 DoJE=T BraDBF=F KetDBF=T FulRan=T
         Omega=  0.000000  0.000000  1.000000  0.000000  0.000000 ICntrl=     500 IOpCl=  0
         NMat0=    1 NMatS0=    1 NMatT0=    0 NMatD0=    1 NMtDS0=    0 NMtDT0=    0
         I1Cent=           4 NGrid=           0.
 Petite list used in FoFCou.
 Harris En= -546.699814219906    
 Initial guess orbital symmetries:
       Occupied  (A1) (A1) (B2) (A1) (B2) (A1) (B1) (A1) (B2) (A1)
                 (B2) (A1) (B1) (A2) (B2) (A1)
       Virtual   (B1) (A1) (B2) (A1) (B1) (A1) (B2) (A1) (A2) (B2)
                 (A1) (B1) (B2) (B2) (A1)
 The electronic state of the initial guess is 1-A1.
 Leave Link  401 at Wed May 26 15:03:08 2021, MaxMem=   33554432 cpu:       0.1
 (Enter /home/emil/gauss09/g09/l502.exe)
 Closed shell SCF:
 Requested convergence on RMS density matrix=1.00D-08 within 128 cycles.
 Requested convergence on MAX density matrix=1.00D-06.
 Requested convergence on             energy=1.00D-06.
 No special actions if energy rises.
 Using DIIS extrapolation, IDIIS=  1040.
 Integral symmetry usage will be decided dynamically.
 Keep R1 ints in memory in canonical form, NReq=944779.
 IEnd=       21509 IEndB=       21509 NGot=    33554432 MDV=    33427272
 LenX=    33427272 LenY=    33425870
 Symmetry not used in FoFDir.
 MinBra= 0 MaxBra= 1 Meth= 1.
 IRaf=       0 NMat=   1 IRICut=       1 DoRegI=T DoRafI=F ISym2E= 0 JSym2E=0.

 Cycle   1  Pass 1  IDiag  1:
 E= -546.713518872970    
 DIIS: error= 7.49D-02 at cycle   1 NSaved=   1.
 NSaved= 1 IEnMin= 1 EnMin= -546.713518872970     IErMin= 1 ErrMin= 7.49D-02
 ErrMax= 7.49D-02 EMaxC= 1.00D-01 BMatC= 2.55D-01 BMatP= 2.55D-01
 IDIUse=3 WtCom= 2.51D-01 WtEn= 7.49D-01
 Coeff-Com:  0.100D+01
 Coeff-En:   0.100D+01
 Coeff:      0.100D+01
 Gap=     0.358 Goal=   None    Shift=    0.000
 GapD=    0.358 DampG=1.000 DampE=0.500 DampFc=0.5000 IDamp=-1.
 Damping current iteration by 5.00D-01
 RMSDP=2.27D-02 MaxDP=1.93D-01              OVMax= 2.42D-01

 Cycle   2  Pass 1  IDiag  1:
 E= -546.813056511211     Delta-E=       -0.099537638241 Rises=F Damp=T
 DIIS: error= 2.16D-02 at cycle   2 NSaved=   2.
 NSaved= 2 IEnMin= 2 EnMin= -546.813056511211     IErMin= 2 ErrMin= 2.16D-02
 ErrMax= 2.16D-02 EMaxC= 1.00D-01 BMatC= 2.28D-02 BMatP= 2.55D-01
 IDIUse=3 WtCom= 7.84D-01 WtEn= 2.16D-01
 Coeff-Com: -0.202D+00 0.120D+01
 Coeff-En:   0.000D+00 0.100D+01
 Coeff:     -0.158D+00 0.116D+01
 Gap=     0.466 Goal=   None    Shift=    0.000
 RMSDP=4.20D-03 MaxDP=3.03D-02 DE=-9.95D-02 OVMax= 9.19D-02

 Cycle   3  Pass 1  IDiag  1:
 E= -546.901528640974     Delta-E=       -0.088472129763 Rises=F Damp=F
 DIIS: error= 4.63D-03 at cycle   3 NSaved=   3.
 NSaved= 3 IEnMin= 3 EnMin= -546.901528640974     IErMin= 3 ErrMin= 4.63D-03
 ErrMax= 4.63D-03 EMaxC= 1.00D-01 BMatC= 3.86D-04 BMatP= 2.28D-02
 IDIUse=3 WtCom= 9.54D-01 WtEn= 4.63D-02
 Coeff-Com: -0.139D-01-0.138D-01 0.103D+01
 Coeff-En:   0.000D+00 0.000D+00 0.100D+01
 Coeff:     -0.133D-01-0.132D-01 0.103D+01
 Gap=     0.464 Goal=   None    Shift=    0.000
 RMSDP=1.26D-03 MaxDP=6.72D-03 DE=-8.85D-02 OVMax= 7.37D-03

 Cycle   4  Pass 1  IDiag  1:
 E= -546.902370092028     Delta-E=       -0.000841451053 Rises=F Damp=F
 DIIS: error= 1.50D-03 at cycle   4 NSaved=   4.
 NSaved= 4 IEnMin= 4 EnMin= -546.902370092028     IErMin= 4 ErrMin= 1.50D-03
 ErrMax= 1.50D-03 EMaxC= 1.00D-01 BMatC= 5.46D-05 BMatP= 3.86D-04
 IDIUse=3 WtCom= 9.85D-01 WtEn= 1.50D-02
 Coeff-Com:  0.172D-01-0.324D-01-0.418D+00 0.143D+01
 Coeff-En:   0.000D+00 0.000D+00 0.000D+00 0.100D+01
 Coeff:      0.170D-01-0.319D-01-0.412D+00 0.143D+01
 Gap=     0.467 Goal=   None    Shift=    0.000
 RMSDP=8.63D-04 MaxDP=6.75D-03 DE=-8.41D-04 OVMax= 3.31D-03

 Cycle   5  Pass 1  IDiag  1:
 E= -546.902542721526     Delta-E=       -0.000172629498 Rises=F Damp=F
 DIIS: error= 3.64D-04 at cycle   5 NSaved=   5.
 NSaved= 5 IEnMin= 5 EnMin= -546.902542721526     IErMin= 5 ErrMin= 3.64D-04
 ErrMax= 3.64D-04 EMaxC= 1.00D-01 BMatC= 2.77D-06 BMatP= 5.46D-05
 IDIUse=3 WtCom= 9.96D-01 WtEn= 3.64D-03
 Coeff-Com: -0.181D-02 0.806D-02 0.128D-01-0.293D+00 0.127D+01
 Coeff-En:   0.000D+00 0.000D+00 0.000D+00 0.000D+00 0.100D+01
 Coeff:     -0.180D-02 0.804D-02 0.128D-01-0.292D+00 0.127D+01
 Gap=     0.467 Goal=   None    Shift=    0.000
 RMSDP=2.35D-04 MaxDP=1.64D-03 DE=-1.73D-04 OVMax= 6.17D-04

 Cycle   6  Pass 1  IDiag  1:
 E= -546.902552202705     Delta-E=       -0.000009481179 Rises=F Damp=F
 DIIS: error= 5.99D-05 at cycle   6 NSaved=   6.
 NSaved= 6 IEnMin= 6 EnMin= -546.902552202705     IErMin= 6 ErrMin= 5.99D-05
 ErrMax= 5.99D-05 EMaxC= 1.00D-01 BMatC= 1.08D-07 BMatP= 2.77D-06
 IDIUse=1 WtCom= 1.00D+00 WtEn= 0.00D+00
 Coeff-Com: -0.122D-02 0.132D-02 0.233D-01-0.373D-01-0.189D+00 0.120D+01
 Coeff:     -0.122D-02 0.132D-02 0.233D-01-0.373D-01-0.189D+00 0.120D+01
 Gap=     0.468 Goal=   None    Shift=    0.000
 RMSDP=3.56D-05 MaxDP=2.82D-04 DE=-9.48D-06 OVMax= 7.13D-05

 Cycle   7  Pass 1  IDiag  1:
 E= -546.902552453024     Delta-E=       -0.000000250319 Rises=F Damp=F
 DIIS: error= 1.21D-05 at cycle   7 NSaved=   7.
 NSaved= 7 IEnMin= 7 EnMin= -546.902552453024     IErMin= 7 ErrMin= 1.21D-05
 ErrMax= 1.21D-05 EMaxC= 1.00D-01 BMatC= 4.26D-09 BMatP= 1.08D-07
 IDIUse=1 WtCom= 1.00D+00 WtEn= 0.00D+00
 Coeff-Com:  0.473D-03-0.517D-03-0.103D-01 0.205D-01 0.639D-01-0.549D+00
 Coeff-Com:  0.148D+01
 Coeff:      0.473D-03-0.517D-03-0.103D-01 0.205D-01 0.639D-01-0.549D+00
 Coeff:      0.148D+01
 Gap=     0.467 Goal=   None    Shift=    0.000
 RMSDP=6.30D-06 MaxDP=4.91D-05 DE=-2.50D-07 OVMax= 4.93D-05

 Cycle   8  Pass 1  IDiag  1:
 E= -546.902552467323     Delta-E=       -0.000000014299 Rises=F Damp=F
 DIIS: error= 3.64D-06 at cycle   8 NSaved=   8.
 NSaved= 8 IEnMin= 8 EnMin= -546.902552467323     IErMin= 8 ErrMin= 3.64D-06
 ErrMax= 3.64D-06 EMaxC= 1.00D-01 BMatC= 3.31D-10 BMatP= 4.26D-09
 IDIUse=1 WtCom= 1.00D+00 WtEn= 0.00D+00
 Coeff-Com: -0.795D-04 0.982D-04 0.176D-02-0.464D-02-0.390D-02 0.905D-01
 Coeff-Com: -0.567D+00 0.148D+01
 Coeff:     -0.795D-04 0.982D-04 0.176D-02-0.464D-02-0.390D-02 0.905D-01
 Coeff:     -0.567D+00 0.148D+01
 Gap=     0.467 Goal=   None    Shift=    0.000
 RMSDP=2.30D-06 MaxDP=1.86D-05 DE=-1.43D-08 OVMax= 2.39D-05

 Cycle   9  Pass 1  IDiag  1:
 E= -546.902552468752     Delta-E=       -0.000000001429 Rises=F Damp=F
 DIIS: error= 5.68D-07 at cycle   9 NSaved=   9.
 NSaved= 9 IEnMin= 9 EnMin= -546.902552468752     IErMin= 9 ErrMin= 5.68D-07
 ErrMax= 5.68D-07 EMaxC= 1.00D-01 BMatC= 9.02D-12 BMatP= 3.31D-10
 IDIUse=1 WtCom= 1.00D+00 WtEn= 0.00D+00
 Coeff-Com:  0.788D-05-0.991D-05-0.217D-03 0.665D-03-0.395D-03-0.120D-01
 Coeff-Com:  0.129D+00-0.481D+00 0.136D+01
 Coeff:      0.788D-05-0.991D-05-0.217D-03 0.665D-03-0.395D-03-0.120D-01
 Coeff:      0.129D+00-0.481D+00 0.136D+01
 Gap=     0.467 Goal=   None    Shift=    0.000
 RMSDP=4.09D-07 MaxDP=3.79D-06 DE=-1.43D-09 OVMax= 3.75D-06

 Cycle  10  Pass 1  IDiag  1:
 E= -546.902552468791     Delta-E=       -0.000000000039 Rises=F Damp=F
 DIIS: error= 1.31D-07 at cycle  10 NSaved=  10.
 NSaved=10 IEnMin=10 EnMin= -546.902552468791     IErMin=10 ErrMin= 1.31D-07
 ErrMax= 1.31D-07 EMaxC= 1.00D-01 BMatC= 5.81D-13 BMatP= 9.02D-12
 IDIUse=1 WtCom= 1.00D+00 WtEn= 0.00D+00
 Coeff-Com: -0.372D-05 0.562D-05 0.839D-04-0.281D-03 0.359D-03 0.489D-02
 Coeff-Com: -0.631D-01 0.252D+00-0.849D+00 0.165D+01
 Coeff:     -0.372D-05 0.562D-05 0.839D-04-0.281D-03 0.359D-03 0.489D-02
 Coeff:     -0.631D-01 0.252D+00-0.849D+00 0.165D+01
 Gap=     0.467 Goal=   None    Shift=    0.000
 RMSDP=8.05D-08 MaxDP=7.31D-07 DE=-3.85D-11 OVMax= 8.68D-07

 Cycle  11  Pass 1  IDiag  1:
 E= -546.902552468793     Delta-E=       -0.000000000002 Rises=F Damp=F
 DIIS: error= 2.18D-08 at cycle  11 NSaved=  11.
 NSaved=11 IEnMin=11 EnMin= -546.902552468793     IErMin=11 ErrMin= 2.18D-08
 ErrMax= 2.18D-08 EMaxC= 1.00D-01 BMatC= 1.11D-14 BMatP= 5.81D-13
 IDIUse=1 WtCom= 1.00D+00 WtEn= 0.00D+00
 Coeff-Com:  0.496D-06-0.669D-06-0.144D-04 0.436D-04-0.374D-04-0.921D-03
 Coeff-Com:  0.107D-01-0.425D-01 0.152D+00-0.387D+00 0.127D+01
 Coeff:      0.496D-06-0.669D-06-0.144D-04 0.436D-04-0.374D-04-0.921D-03
 Coeff:      0.107D-01-0.425D-01 0.152D+00-0.387D+00 0.127D+01
 Gap=     0.467 Goal=   None    Shift=    0.000
 RMSDP=7.99D-09 MaxDP=6.71D-08 DE=-1.82D-12 OVMax= 6.44D-08

 SCF Done:  E(RHF) =  -546.902552469     A.U. after   11 cycles
             Convg  =    0.7989D-08             -V/T =  1.9987
 KE= 5.476164221806D+02 PE=-1.516324255020D+03 EE= 3.133000135488D+02
 Leave Link  502 at Wed May 26 15:03:08 2021, MaxMem=   33554432 cpu:       0.1
 (Enter /home/emil/gauss09/g09/l601.exe)
 Copying SCF densities to generalized density rwf, IOpCl= 0 IROHF=0.

 **********************************************************************

            Population analysis using the SCF density.

 **********************************************************************

 Orbital symmetries:
       Occupied  (A1) (B2) (A1) (A1) (B2) (B1) (A1) (A1) (B2) (A1)
                 (A1) (B1) (B2) (B2) (A2) (A1)
       Virtual   (B1) (A1) (B2) (A1) (B1) (A1) (B2) (A1) (A2) (B2)
                 (A1) (B1) (B2) (B2) (A1)
 The electronic state is 1-A1.
 Alpha  occ. eigenvalues --  -92.22351 -20.64663 -20.64659  -9.23916  -6.92181
 Alpha  occ. eigenvalues --   -6.91470  -6.91439  -1.57143  -1.44090  -0.89059
 Alpha  occ. eigenvalues --   -0.71804  -0.69505  -0.69273  -0.54662  -0.50402
 Alpha  occ. eigenvalues --   -0.48774
 Alpha virt. eigenvalues --   -0.02027   0.20250   0.21238   0.37048   0.41115
 Alpha virt. eigenvalues --    0.51197   0.63295   1.11575   1.14957   1.18333
 Alpha virt. eigenvalues --    1.19890   1.23502   1.31605   1.69172   1.71087
          Condensed to atoms (all electrons):
              1          2          3
     1  S   14.606644   0.057776   0.057776
     2  O    0.057776   8.642248  -0.061122
     3  O    0.057776  -0.061122   8.642248
 Mulliken atomic charges:
              1
     1  S    1.277804
     2  O   -0.638902
     3  O   -0.638902
 Sum of Mulliken atomic charges =   0.00000
 Mulliken charges with hydrogens summed into heavy atoms:
              1
     1  S    1.277804
     2  O   -0.638902
     3  O   -0.638902
 Sum of Mulliken charges with hydrogens summed into heavy atoms =   0.00000
 Electronic spatial extent (au):  <R**2>=            157.8745
 Charge=              0.0000 electrons
 Dipole moment (field-independent basis, Debye):
    X=              0.0000    Y=              0.0000    Z=              2.6903  Tot=              2.6903
 Quadrupole moment (field-independent basis, Debye-Ang):
   XX=            -20.7238   YY=            -31.0592   ZZ=            -23.6646
   XY=              0.0000   XZ=              0.0000   YZ=              0.0000
 Traceless Quadrupole moment (field-independent basis, Debye-Ang):
   XX=              4.4254   YY=             -5.9100   ZZ=              1.4847
   XY=              0.0000   XZ=              0.0000   YZ=              0.0000
 Octapole moment (field-independent basis, Debye-Ang**2):
  XXX=              0.0000  YYY=              0.0000  ZZZ=              0.5916  XYY=              0.0000
  XXY=              0.0000  XXZ=              0.3990  XZZ=              0.0000  YZZ=              0.0000
  YYZ=              4.0395  XYZ=              0.0000
 Hexadecapole moment (field-independent basis, Debye-Ang**3):
 XXXX=            -18.0282 YYYY=           -140.8290 ZZZZ=            -40.5271 XXXY=              0.0000
 XXXZ=              0.0000 YYYX=              0.0000 YYYZ=              0.0000 ZZZX=              0.0000
 ZZZY=              0.0000 XXYY=            -23.9565 XXZZ=             -9.5184 YYZZ=            -28.4438
 XXYZ=              0.0000 YYXZ=              0.0000 ZZXY=              0.0000
 N-N= 1.085052668215D+02 E-N=-1.516324255144D+03  KE= 5.476164221806D+02
 Symmetry A1   KE= 3.943639875431D+02
 Symmetry A2   KE= 4.415983861089D+00
 Symmetry B1   KE= 3.910625581728D+01
 Symmetry B2   KE= 1.097301949591D+02
 No NMR shielding tensors so no spin-rotation constants.
 Leave Link  601 at Wed May 26 15:03:08 2021, MaxMem=   33554432 cpu:       0.1
 (Enter /home/emil/gauss09/g09/l9999.exe)
 1\1\GINC-KONG-SRV\SP\RHF\6-31G\O2S1\EMIL\26-May-2021\0\\#P HF/6-31G\\S
 O2\\0,1\S\O,1,1.42950383\O,1,1.42950383,2,119.13639205\\Version=EM64L-
 G09RevB.01\State=1-A1\HF=-546.9025525\RMSD=7.989e-09\Dipole=-0.9126197
 ,0.,-0.536112\Quadrupole=-0.3066692,3.290151,-2.9834819,0.,2.4010515,0
 .\PG=C02V [C2(S1),SGV(O2)]\\@


 WHEN A MATHEMATICIAN ENGAGED IN INVESTIGATING
 PHYSICAL ACTIONS AND RESULTS HAS ARRIVED AT HIS
 CONCLUSIONS, MAY THEY NOT BE EXPRESSED IN COMMON
 LANGUAGE AS FULLY, CLEARLY, AND DEFINITELY AS IN
 MATHEMATICAL FORMULAE?
           - LETTER FROM M. FARADAY TO J.C. MAXWELL, 1857.
 Job cpu time:  0 days  0 hours  0 minutes  0.9 seconds.
 File lengths (MBytes):  RWF=      5 Int=      0 D2E=      0 Chk=      1 Scr=      1
 Normal termination of Gaussian 09 at Wed May 26 15:03:08 2021.
